chemcompute.org
{'UTCtimestamp': '2022-10-29T20:27:28.868561', 'cluster': 'jetstream2', 'clusterJobNumber': '141110', 'status': 'RUNNING', 'nodeList': 'chemcompute-node-0'}
----- GAMESS execution script 'rungms' -----
This job is running on host chemcompute-node-0.novalocal
under operating system Linux at Sat Oct 29 20:27:32 UTC 2022
SLURM has assigned the following compute nodes to this run:
Available scratch disk space (Kbyte units) at beginning of the job is
Filesystem     1K-blocks     Used Available Use% Mounted on
/dev/sda1       62903276 13033544  49869732  21% /
GAMESS temporary binary files will be written to /scratch/141110
GAMESS supplementary output files will be written to /data/slurm/48/483148
Copying input file 483148.inp to your run's scratch directory...
The generated host list is
chemcompute-node-0.novalocal

 Distributed Data Interface kickoff program.
 Initiating 1 compute processes on 1 nodes to run the following command:
 /data/gamess-2019R1-avx2-ddi/gamess.00.x 483148 

          ******************************************************
          *         GAMESS VERSION = 30 JUN 2019 (R1)          *
          *             FROM IOWA STATE UNIVERSITY             *
          * M.W.SCHMIDT, K.K.BALDRIDGE, J.A.BOATZ, S.T.ELBERT, *
          *   M.S.GORDON, J.H.JENSEN, S.KOSEKI, N.MATSUNAGA,   *
          *          K.A.NGUYEN, S.J.SU, T.L.WINDUS,           *
          *       TOGETHER WITH M.DUPUIS, J.A.MONTGOMERY       *
          *         J.COMPUT.CHEM.  14, 1347-1363(1993)        *
          **************** 64 BIT INTEL VERSION ****************

  SINCE 1993, STUDENTS AND POSTDOCS WORKING AT IOWA STATE UNIVERSITY
  AND ALSO IN THEIR VARIOUS JOBS AFTER LEAVING ISU HAVE MADE IMPORTANT
  CONTRIBUTIONS TO THE CODE:
     IVANA ADAMOVIC, CHRISTINE AIKENS, YURI ALEXEEV, POOJA ARORA,
     ANDREY ASADCHEV, ROB BELL, PRADIPTA BANDYOPADHYAY, JONATHAN BENTZ,
     COLLEEN BERTONI, BRETT BODE, KURT BRORSEN, CALEB CARLIN, GALINA CHABAN,
     WEI CHEN, CHEOL HO CHOI, PAUL DAY, ALBERT DEFUSCO, NUWAN DESILVA,
     TIM DUDLEY, DMITRI FEDOROV, ALEX FINDLATER, GRAHAM FLETCHER, 
     MARK FREITAG, KURT GLAESEMANN, ANASTASIA GUNINA,
     DAN KEMP, GRANT MERRILL, NORIYUKI MINEZAWA, JONATHAN MULLIN,
     TAKESHI NAGATA, SEAN NEDD, HEATHER NETZLOFF, BOSILJKA NJEGIC, RYAN OLSON,
     MIKE PAK, BUU PHAM,
     SPENCER PRUITT, LUKE ROSKOP, JIM SHOEMAKER, LYUDMILA SLIPCHENKO,
     TONY SMITH, SAROM SOK LEANG, JIE SONG, TETSUYA TAKETSUGU, SIMON WEBB,
     PENG XU, SOOHAENG YOO, FEDERICO ZAHARIEV

  ADDITIONAL CODE HAS BEEN PROVIDED BY COLLABORATORS IN OTHER GROUPS:
     IOWA STATE UNIVERSITY:
          JOE IVANIC, AARON WEST, LAIMUTIS BYTAUTAS, KLAUS RUEDENBERG
     UNIVERSITY OF TOKYO: KIMIHIKO HIRAO, TAKAHITO NAKAJIMA,
          TAKAO TSUNEDA, MUNEAKI KAMIYA, SUSUMU YANAGISAWA,
          KIYOSHI YAGI, MAHITO CHIBA, SEIKEN TOKURA, NAOAKI KAWAKAMI
     UNIVERSITY OF AARHUS: FRANK JENSEN
     UNIVERSITY OF IOWA: VISVALDAS KAIRYS, HUI LI
     NATIONAL INST. OF STANDARDS AND TECHNOLOGY: WALT STEVENS, DAVID GARMER
     UNIVERSITY OF PISA: BENEDETTA MENNUCCI, JACOPO TOMASI
     UNIVERSITY OF MEMPHIS: HENRY KURTZ, PRAKASHAN KORAMBATH
     UNIVERSITY OF ALBERTA: TOBY ZENG, MARIUSZ KLOBUKOWSKI
     UNIVERSITY OF NEW ENGLAND: MARK SPACKMAN
     MIE UNIVERSITY: HIROAKI UMEDA
     NAT. INST. OF ADVANCED INDUSTRIAL SCIENCE AND TECHNOLOGY: KAZUO KITAURA
     MICHIGAN STATE UNIVERSITY:
          KAROL KOWALSKI, MARTA WLOCH, JEFFREY GOUR, JESSE LUTZ,
          WEI LI, JUN SHEN, J. EMILIANO DEUSTUA, PIOTR PIECUCH
     UNIVERSITY OF MINNESOTA:
          YINAN SHU
     UNIVERSITY OF SILESIA: MONIKA MUSIAL, STANISLAW KUCHARSKI
     FACULTES UNIVERSITAIRES NOTRE-DAME DE LA PAIX:
          OLIVIER QUINET, BENOIT CHAMPAGNE
     UNIVERSITY OF CALIFORNIA - SANTA BARBARA: BERNARD KIRTMAN
     INSTITUTE FOR MOLECULAR SCIENCE:
          KAZUYA ISHIMURA, MICHIO KATOUDA, AND SHIGERU NAGASE
     UNIVERSITY OF NOTRE DAME: ANNA POMOGAEVA, DAN CHIPMAN
     KYUSHU UNIVERSITY:
          HARUYUKI NAKANO,
          FENG LONG GU, JACEK KORCHOWIEC, MARCIN MAKOWSKI, AND YURIKO AOKI,
          HIROTOSHI MORI AND EISAKU MIYOSHI
     PENNSYLVANIA STATE UNIVERSITY:
          TZVETELIN IORDANOV, CHET SWALINA, JONATHAN SKONE,
          SHARON HAMMES-SCHIFFER
     WASEDA UNIVERSITY:
          MASATO KOBAYASHI, TOMOKO AKAMA, TSUGUKI TOUMA,
          TAKESHI YOSHIKAWA, YASUHIRO IKABATA, JUNJI SEINO,
          YUYA NAKAJIMA, HIROMI NAKAI
     NANJING UNIVERSITY: SHUHUA LI
     UNIVERSITY OF NEBRASKA:
          PEIFENG SU, DEJUN SI, NANDUN THELLAMUREGE, YALI WANG, HUI LI
     UNIVERSITY OF ZURICH: ROBERTO PEVERATI, KIM BALDRIDGE
     N. COPERNICUS UNIVERSITY AND JACKSON STATE UNIVERSITY:
          MARIA BARYSZ
     UNIVERSITY OF COPENHAGEN: Jimmy Kromann, CASPER STEINMANN
     TOKYO INSTITUTE OF TECHNOLOGY: HIROYA NAKATA
     NAGOYA UNIVERSITY: YOSHIO NISHIMOTO, STEPHAN IRLE
     MOSCOW STATE UNIVERSITY: VLADIMIR MIRONOV
     A.N.NESMEYANOV INSTITUTE OF ORGANOELEMENT COMPOUNDS OF RUSSIAN ACADEMY OF SCIENCES:
          IGOR S. GERASIMOV

 EXECUTION OF GAMESS BEGUN Sat Oct 29 20:27:32 2022

            ECHO OF THE FIRST FEW INPUT CARDS -
 INPUT CARD>!                                                                               
 INPUT CARD>!   GAMESS Calculation input file                                               
 INPUT CARD>!                                                                               
 INPUT CARD>!                                                                               
 INPUT CARD> $CONTRL SCFTYP=RHF MAXIT=200 RUNTYP=OPTIMIZE                                   
 INPUT CARD>         COORD=UNIQUE MULT=1                                                    
 INPUT CARD>         ICHARG=0                                                               
 INPUT CARD>         DFTTYP=B3LYP                                                           
 INPUT CARD>         MOLPLT=.FALSE. PLTORB=.FALSE.  $END                                    
 INPUT CARD> $SYSTEM TIMLIM=2879 MWORDS=250  $END                                           
 INPUT CARD>                                                                                
 INPUT CARD> $FORCE METHOD=SEMINUM NVIB=2 $END                                              
 INPUT CARD> $STATPT OPTTOL=0.0005 NSTEP=999 $END                                           
 INPUT CARD> $STATPT IHREP=0 HSSEND=.TRUE.  $END                                            
 INPUT CARD>                                                                                
 INPUT CARD> $DFT    METHOD=GRID  NLEB=590  $END                                            
 INPUT CARD>                                                                                
 INPUT CARD> $BASIS  GBASIS=N21 NGAUSS=3 $END                                               
 INPUT CARD>                                                                                
 INPUT CARD> $SCF    DIRSCF=.T. $END                                                        
 INPUT CARD> $GUESS  GUESS=HUCKEL  $END                                                     
 INPUT CARD>                                                                                
 INPUT CARD> $DATA                                                                          
 INPUT CARD>                                                                                
 INPUT CARD>  Cs                                                                            
 INPUT CARD>                                                                                
 INPUT CARD>C     6.0     0.79     0.99     0.00                                            
 INPUT CARD>C     6.0    -0.36     0.31     0.00                                            
 INPUT CARD>C     6.0    -0.42    -1.19    -0.00                                            
 INPUT CARD>H     1.0     1.75     0.48    -0.00                                            
 INPUT CARD>H     1.0     0.79     2.07     0.00                                            
 INPUT CARD>H     1.0    -1.30     0.84     0.00                                            
 INPUT CARD>H     1.0     0.06    -1.60     0.89                                            
 INPUT CARD>H     1.0    -1.46    -1.52    -0.00                                            
 INPUT CARD> $END                                                                           
 INPUT CARD>                                                                                
 INPUT CARD>                                                                                
 INPUT CARD>! Customizations after this line are persisted when using Do More Calculations  
  250000000 WORDS OF MEMORY AVAILABLE

     BASIS OPTIONS
     -------------
     GBASIS=N21          IGAUSS=       3      POLAR=NONE    
     NDFUNC=       0     NFFUNC=       0     DIFFSP=       F
     NPFUNC=       0      DIFFS=       F     BASNAM=        


     RUN TITLE
     ---------
                                                                                 

 THE POINT GROUP OF THE MOLECULE IS CS      
 THE ORDER OF THE PRINCIPAL AXIS IS     0

 ATOM      ATOMIC                      COORDINATES (BOHR)
           CHARGE         X                   Y                   Z
 C           6.0     1.4928835303        1.8708287278        0.0000000000
 C           6.0    -0.6803013556        0.5858150562        0.0000000000
 C           6.0    -0.7936849148       -2.2487739254        0.0000000000
 H           1.0     3.3070204785        0.9070684741        0.0000000000
 H           1.0     1.4928835303        3.9117327946        0.0000000000
 H           1.0    -2.4566437840        1.5873698297        0.0000000000
 H           1.0     0.1133835593       -3.0235615804       -1.6818561291
 H           1.0     0.1133835593       -3.0235615804        1.6818561291
 H           1.0    -2.7589999421       -2.8723835013        0.0000000000

          INTERNUCLEAR DISTANCES (ANGS.)
          ------------------------------

                1 C          2 C          3 C          4 H          5 H     

   1 C       0.0000000    1.3360015 *  2.4932910 *  1.0870603 *  1.0800000 *
   2 C       1.3360015 *  0.0000000    1.5011995 *  2.1168373 *  2.1024034 *
   3 C       2.4932910 *  1.5011995 *  0.0000000    2.7382111 *  3.4773122  
   4 H       1.0870603 *  2.1168373 *  2.7382111 *  0.0000000    1.8573368 *
   5 H       1.0800000 *  2.1024034 *  3.4773122    1.8573368 *  0.0000000  
   6 H       2.0953759 *  1.0791200 *  2.2125325 *  3.0711724    2.4250773 *
   7 H       2.8342724 *  2.1486275 *  1.0911462 *  2.8239334 *  3.8462839  
   8 H       2.8342724 *  2.1486275 *  1.0911462 *  2.8239334 *  3.8462839  
   9 H       3.3708456    2.1351581 *  1.0911004 *  3.7820761    4.2368148  

                6 H          7 H          8 H          9 H     

   1 C       2.0953759 *  2.8342724 *  2.8342724 *  3.3708456  
   2 C       1.0791200 *  2.1486275 *  2.1486275 *  2.1351581 *
   3 C       2.2125325 *  1.0911462 *  1.0911462 *  1.0911004 *
   4 H       3.0711724    2.8239334 *  2.8239334 *  3.7820761  
   5 H       2.4250773 *  3.8462839    3.8462839    4.2368148  
   6 H       0.0000000    2.9317742 *  2.9317742 *  2.3654175 *
   7 H       2.9317742 *  0.0000000    1.7800000 *  1.7632073 *
   8 H       2.9317742 *  1.7800000 *  0.0000000    1.7632073 *
   9 H       2.3654175 *  1.7632073 *  1.7632073 *  0.0000000  

  * ... LESS THAN  3.000


     ATOMIC BASIS SET
     ----------------
 THE CONTRACTED PRIMITIVE FUNCTIONS HAVE BEEN UNNORMALIZED
 THE CONTRACTED BASIS FUNCTIONS ARE NOW NORMALIZED TO UNITY

  SHELL TYPE  PRIMITIVE        EXPONENT          CONTRACTION COEFFICIENT(S)

 C         

      1   S       1           172.2560000    0.061766907377
      1   S       2            25.9109000    0.358794042852
      1   S       3             5.5333500    0.700713083689

      2   L       4             3.6649800   -0.395895162119    0.236459946619
      2   L       5             0.7705450    1.215834355681    0.860618805716

      3   L       6             0.1958570    1.000000000000    1.000000000000

 C         

      4   S       7           172.2560000    0.061766907377
      4   S       8            25.9109000    0.358794042852
      4   S       9             5.5333500    0.700713083689

      5   L      10             3.6649800   -0.395895162119    0.236459946619
      5   L      11             0.7705450    1.215834355681    0.860618805716

      6   L      12             0.1958570    1.000000000000    1.000000000000

 C         

      7   S      13           172.2560000    0.061766907377
      7   S      14            25.9109000    0.358794042852
      7   S      15             5.5333500    0.700713083689

      8   L      16             3.6649800   -0.395895162119    0.236459946619
      8   L      17             0.7705450    1.215834355681    0.860618805716

      9   L      18             0.1958570    1.000000000000    1.000000000000

 H         

     10   S      19             5.4471780    0.156284978695
     10   S      20             0.8245472    0.904690876670

     11   S      21             0.1831916    1.000000000000

 H         

     12   S      22             5.4471780    0.156284978695
     12   S      23             0.8245472    0.904690876670

     13   S      24             0.1831916    1.000000000000

 H         

     14   S      25             5.4471780    0.156284978695
     14   S      26             0.8245472    0.904690876670

     15   S      27             0.1831916    1.000000000000

 H         

     18   S      28             5.4471780    0.156284978695
     18   S      29             0.8245472    0.904690876670

     19   S      30             0.1831916    1.000000000000

 H         

     20   S      31             5.4471780    0.156284978695
     20   S      32             0.8245472    0.904690876670

     21   S      33             0.1831916    1.000000000000

 TOTAL NUMBER OF BASIS SET SHELLS             =   21
 NUMBER OF CARTESIAN GAUSSIAN BASIS FUNCTIONS =   39
 NUMBER OF ELECTRONS                          =   24
 CHARGE OF MOLECULE                           =    0
 SPIN MULTIPLICITY                            =    1
 NUMBER OF OCCUPIED ORBITALS (ALPHA)          =   12
 NUMBER OF OCCUPIED ORBITALS (BETA )          =   12
 TOTAL NUMBER OF ATOMS                        =    9
 THE NUCLEAR REPULSION ENERGY IS       70.8529312776

 SELECTED MURRAY-HANDY-LAMING RADIAL GRID

 LEGACY BECKE'S FUZZY CELL METHOD

 SELECTED ORIGINAL BECKE'S PARTITION FUNCTION

     LEBEDEV GRID-BASED DFT OPTIONS
     ------------------------------
     DFTTYP=B3LYP   
     NRAD  =      96     NLEB  =     590
     NRAD0 =      24     NLEB0 =     110
     SWOFF =    5.00E-03 (PURE SCF -> DFT)
     SWITCH=    3.00E-04 (COARSE -> TIGHT GRID)
     THRESH=    0.00E+00 GTHRE=    1.00E+00

 GRIMME'S EMPIRICAL DISPERSION CORRECTION= F

     $CONTRL OPTIONS
     ---------------
 SCFTYP=RHF          RUNTYP=OPTIMIZE     EXETYP=RUN     
 MPLEVL=       0     CITYP =NONE         CCTYP =NONE         VBTYP =NONE    
 DFTTYP=B3LYP        TDDFT =NONE    
 MULT  =       1     ICHARG=       0     NZVAR =       0     COORD =UNIQUE  
 PP    =NONE         RELWFN=NONE         LOCAL =NONE         NUMGRD=       F
 ISPHER=      -1     NOSYM =       0     MAXIT =     200     UNITS =ANGS    
 PLTORB=       F     MOLPLT=       F     AIMPAC=       F     FRIEND=        
 NPRINT=       7     IREST =       0     GEOM  =INPUT   
 NORMF =       0     NORMP =       0     ITOL  =      20     ICUT  =       9
 INTTYP=BEST         GRDTYP=BEST         QMTTOL= 1.0E-06

     $SYSTEM OPTIONS
     ---------------
  REPLICATED MEMORY=   250000000 WORDS (ON EVERY NODE).
 DISTRIBUTED MEMDDI=           0 MILLION WORDS IN AGGREGATE,
 MEMDDI DISTRIBUTED OVER   1 PROCESSORS IS           0 WORDS/PROCESSOR.
 TOTAL MEMORY REQUESTED ON EACH PROCESSOR=   250000000 WORDS.
 TIMLIM=        2879.00 MINUTES, OR       2.0 DAYS.
 PARALL= F  BALTYP=  DLB     KDIAG=    0  COREFL= F
 MXSEQ2=     300 MXSEQ3=     150  mem10=         0

          ----------------
          PROPERTIES INPUT
          ----------------

     MOMENTS            FIELD           POTENTIAL          DENSITY
 IEMOM =       1   IEFLD =       0   IEPOT =       0   IEDEN =       0
 WHERE =COMASS     WHERE =NUCLEI     WHERE =NUCLEI     WHERE =NUCLEI  
 OUTPUT=BOTH       OUTPUT=BOTH       OUTPUT=BOTH       OUTPUT=BOTH    
 IEMINT=       0   IEFINT=       0                     IEDINT=       0
                                                       MORB  =       0
          EXTRAPOLATION IN EFFECT
          DIIS IN EFFECT
 ORBITAL PRINTING OPTION: NPREO=     1    39     2     1

     -------------------------------
     INTEGRAL TRANSFORMATION OPTIONS
     -------------------------------
     NWORD  =            0
     CUTOFF = 1.0E-09     MPTRAN =       0
     DIRTRF =       T     AOINTS =DUP     

          ----------------------
          INTEGRAL INPUT OPTIONS
          ----------------------
 NOPK  =       1 NORDER=       0 SCHWRZ=       T

     ------------------------------------------
     THE POINT GROUP IS CS , NAXIS= 0, ORDER= 2
     ------------------------------------------

     DIMENSIONS OF THE SYMMETRY SUBSPACES ARE
 A'  =   31     A'' =    8

 ..... DONE SETTING UP THE RUN .....
 STEP CPU TIME =     0.01 TOTAL CPU TIME =          0.0 (      0.0 MIN)
 TOTAL WALL CLOCK TIME=          0.0 SECONDS, CPU UTILIZATION IS    33.33%


          -----------------------------
          STATIONARY POINT LOCATION RUN
          -----------------------------

 OBTAINING INITIAL HESSIAN, HESS=GUESS   
 CARTESIAN COORDINATE OPTIMIZATION USING BADGER'S RULE FORCE CONSTANT GUESS

          PARAMETERS CONTROLLING GEOMETRY SEARCH ARE
          METHOD =QA                  UPHESS =BFGS    
          NNEG   =         0          NFRZ   =         0
          NSTEP  =       999          IFOLOW =         1
          HESS   =GUESS               RESTAR =         F
          IHREP  =         0          HSSEND =         T
          NPRT   =         0          NPUN   =         0
          OPTTOL = 5.000E-04          RMIN   = 1.500E-03
          RMAX   = 1.000E-01          RLIM   = 7.000E-02
          DXMAX  = 3.000E-01          PURIFY =         F
          MOVIE  =         F          TRUPD  =         T
          TRMAX  = 5.000E-01          TRMIN  = 5.000E-02
          ITBMAT =         5          STPT   =         F
          STSTEP = 1.000E-02          PROJCT=          T

 BEGINNING GEOMETRY SEARCH POINT NSERCH=   0 ...

 COORDINATES OF SYMMETRY UNIQUE ATOMS (ANGS)
   ATOM   CHARGE       X              Y              Z
 ------------------------------------------------------------
 C           6.0   0.7900000000   0.9900000000   0.0000000000
 C           6.0  -0.3600000000   0.3100000000   0.0000000000
 C           6.0  -0.4200000000  -1.1900000000   0.0000000000
 H           1.0   1.7500000000   0.4800000000   0.0000000000
 H           1.0   0.7900000000   2.0700000000   0.0000000000
 H           1.0  -1.3000000000   0.8400000000   0.0000000000
 H           1.0   0.0600000000  -1.6000000000   0.8900000000
 H           1.0  -1.4600000000  -1.5200000000   0.0000000000
 COORDINATES OF ALL ATOMS ARE (ANGS)
   ATOM   CHARGE       X              Y              Z
 ------------------------------------------------------------
 C           6.0   0.7900000000   0.9900000000   0.0000000000
 C           6.0  -0.3600000000   0.3100000000   0.0000000000
 C           6.0  -0.4200000000  -1.1900000000   0.0000000000
 H           1.0   1.7500000000   0.4800000000   0.0000000000
 H           1.0   0.7900000000   2.0700000000   0.0000000000
 H           1.0  -1.3000000000   0.8400000000   0.0000000000
 H           1.0   0.0600000000  -1.6000000000  -0.8900000000
 H           1.0   0.0600000000  -1.6000000000   0.8900000000
 H           1.0  -1.4600000000  -1.5200000000   0.0000000000

          ********************
          1 ELECTRON INTEGRALS
          ********************
 ...... END OF ONE-ELECTRON INTEGRALS ......
 STEP CPU TIME =     0.01 TOTAL CPU TIME =          0.0 (      0.0 MIN)
 TOTAL WALL CLOCK TIME=          0.0 SECONDS, CPU UTILIZATION IS    50.00%

          -------------
          GUESS OPTIONS
          -------------
          GUESS =HUCKEL            NORB  =       0          NORDER=       0
          MIX   =       F          PRTMO =       F          PUNMO =       F
          TOLZ  = 1.0E-08          TOLE  = 1.0E-05
          SYMDEN=       F          PURIFY=       F

 INITIAL GUESS ORBITALS GENERATED BY HUCKEL   ROUTINE.
 HUCKEL GUESS REQUIRES     19284 WORDS.

 SYMMETRIES FOR INITIAL GUESS ORBITALS FOLLOW.   BOTH SET(S).
    12 ORBITALS ARE OCCUPIED (    3 CORE ORBITALS).
     4=A'       5=A'       6=A'       7=A'       8=A''      9=A'      10=A'  
    11=A'      12=A''     13=A''     14=A'      15=A'      16=A''     17=A'  
    18=A'      19=A'      20=A'      21=A'      22=A'  
 ...... END OF INITIAL ORBITAL SELECTION ......
 STEP CPU TIME =     0.01 TOTAL CPU TIME =          0.0 (      0.0 MIN)
 TOTAL WALL CLOCK TIME=          0.0 SECONDS, CPU UTILIZATION IS    60.00%

                    ----------------------
                    AO INTEGRAL TECHNOLOGY
                    ----------------------
     S,P,L SHELL ROTATED AXIS INTEGRALS, REPROGRAMMED BY
        KAZUYA ISHIMURA (IMS) AND JOSE SIERRA (SYNSTAR).
     S,P,D,L SHELL ROTATED AXIS INTEGRALS PROGRAMMED BY
        KAZUYA ISHIMURA (INSTITUTE FOR MOLECULAR SCIENCE).
     S,P,D,F,G SHELL TO TOTAL QUARTET ANGULAR MOMENTUM SUM 5,
        ERIC PROGRAM BY GRAHAM FLETCHER (ELORET AND NASA ADVANCED
        SUPERCOMPUTING DIVISION, AMES RESEARCH CENTER).
     S,P,D,F,G,L SHELL GENERAL RYS QUADRATURE PROGRAMMED BY
        MICHEL DUPUIS (PACIFIC NORTHWEST NATIONAL LABORATORY).

          --------------------
          2 ELECTRON INTEGRALS
          --------------------

 DIRECT SCF METHOD SKIPS INTEGRAL STORAGE ON DISK.
 DIRECT TRANSFORMATION SKIPS AO INTEGRAL STORAGE ON DISK.
  ...... END OF TWO-ELECTRON INTEGRALS .....
 STEP CPU TIME =     0.00 TOTAL CPU TIME =          0.0 (      0.0 MIN)
 TOTAL WALL CLOCK TIME=          0.1 SECONDS, CPU UTILIZATION IS    50.00%

          --------------------------
             R-B3LYP SCF CALCULATION
          --------------------------

     NUCLEAR ENERGY =        70.8529312776
     MAXIT =  200     NPUNCH=    2
     EXTRAP=T  DAMP=F  SHIFT=F  RSTRCT=F  DIIS=T  DEM=F  SOSCF=F
         DENSITY MATRIX CONVERGENCE THRESHOLD=  2.00E-05
     COARSE -> FINE DFT GRID SWITCH THRESHOLD=  3.00E-04 (SWITCH IN $DFT)
                   HF -> DFT SWITCH THRESHOLD=  5.00E-03 (SWOFF IN $DFT)
     MEMORY REQUIRED FOR RHF ITERS=    654047 WORDS.

 DIRECT SCF CALCULATION, SCHWRZ=T   FDIFF=T,  DIRTHR=  0.00E+00 NITDIR=10
 SCHWARZ INEQUALITY OVERHEAD:       779 INTEGRALS, T=        0.00

 DFT CODE IS SWITCHING FROM THE FINE GRID NRAD= 96,  NLEB=  590
                      TO THE COARSE GRID NRAD0= 24, NLEB0=  110

     EXCHANGE FUNCTIONAL   =B88&HFX   
     CORRELATION FUNCTIONAL=LYP88&VWN5
     DFT THRESHOLD         =.785E-08
     GRID CHANGE THRESHOLD =.300E-03
 FOR AN EULER-MACLAURIN QUADRATURE USING  96 RADIAL POINTS:
 SMALLEST GAUSSIAN PRIMITIVE EXPONENT=        0.1831915800 OF TYPE -S-
 ON ATOM NUMBER   4 HAS RADIAL NORMALIZATION=  1.000000
  LARGEST GAUSSIAN PRIMITIVE EXPONENT=      172.2560000000 OF TYPE -S-
 ON ATOM NUMBER   1 HAS RADIAL NORMALIZATION=  1.000000
 DFT IS SWITCHED OFF, PERFORMING PURE SCF UNTIL SWOFF THRESHOLD IS REACHED.

                                                                                   NONZERO     BLOCKS
 ITER EX DEM     TOTAL ENERGY        E CHANGE  DENSITY CHANGE    DIIS ERROR      INTEGRALS    SKIPPED
   1  0  0     -116.1991943904  -116.1991943904   0.445407070   0.525908315         165564       1689
          * * *   INITIATING DIIS PROCEDURE   * * *
   2  1  0     -116.4087414194    -0.2095470290   0.083005920   0.076915651         165208       1922
   3  2  0     -116.4183259888    -0.0095845694   0.032866241   0.024248889         164447       2193
   4  3  0     -116.4198026341    -0.0014766453   0.012214532   0.006958288         163373       2506
   5  4  0     -116.4199820097    -0.0001793756   0.002706874   0.002202408         162636       2715
 CONVERGED TO SWOFF, SO DFT CALCULATION IS NOW SWITCHED ON.
          * * *   INITIATING DIIS PROCEDURE   * * *
   6  5  0     -117.1657956699    -0.7458136602   0.052414793   0.072861747         165598       1666
   7  6  0     -117.1723457062    -0.0065500363   0.031244113   0.026366572         164759       2128
   8  7  0     -117.1738423204    -0.0014966142   0.017189776   0.017936018         164043       2274
   9  8  0     -117.1749256124    -0.0010832920   0.003417399   0.006840840         163287       2492
  10  9  0     -117.1749743937    -0.0000487813   0.000391263   0.000371402         161271       3094
  11 10  0     -117.1749746340    -0.0000002403   0.000194144   0.000192768         157472       3742
 DFT CODE IS SWITCHING BACK TO THE FINE GRID
          * * *   INITIATING DIIS PROCEDURE   * * *
  12 11  0     -117.1761590498    -0.0011844158   0.002183350   0.000423639         165606       1655
  13 12  0     -117.1761604767    -0.0000014270   0.000213143   0.000104601         160540       3163
  14 13  0     -117.1761604747     0.0000000021   0.000135176   0.000134757         156073       4051
  15 14  0     -117.1761605091    -0.0000000345   0.000030228   0.000055978         154505       4448
  16 15  0     -117.1761605121    -0.0000000030   0.000007063   0.000009430         151337       5104
  17 16  0     -117.1761605123    -0.0000000002   0.000000956   0.000001101         148115       5601

          -----------------
          DENSITY CONVERGED
          -----------------
     TIME TO FORM FOCK OPERATORS=       4.0 SECONDS (       0.2 SEC/ITER)
     FOCK TIME ON FIRST ITERATION=       0.0, LAST ITERATION=       0.6
     TIME TO SOLVE SCF EQUATIONS=       0.1 SECONDS (       0.0 SEC/ITER)

 FINAL R-B3LYP ENERGY IS     -117.1761605123 AFTER  17 ITERATIONS
 DFT EXCHANGE + CORRELATION ENERGY =       -14.8353034240
 TOTAL ELECTRON NUMBER             =        23.9999808906

          ------------
          EIGENVECTORS
          ------------

                      1          2          3          4          5
                  -10.1171   -10.1070   -10.1027    -0.7808    -0.6785
                     A'         A'         A'         A'         A'  
    1  C  1  S   -0.035492  -0.034856   0.984226  -0.121167   0.140638
    2  C  1  S   -0.008440  -0.004957   0.106135   0.132262  -0.148227
    3  C  1  X    0.002228   0.000593  -0.000106  -0.073323   0.042558
    4  C  1  Y    0.001653   0.001023   0.000037  -0.052944  -0.000181
    5  C  1  Z    0.000000   0.000000   0.000000   0.000000   0.000000
    6  C  1  S    0.032327   0.006814  -0.077531   0.243286  -0.360853
    7  C  1  X   -0.010803  -0.004626   0.007923  -0.007031   0.017690
    8  C  1  Y   -0.012806  -0.001997   0.003919   0.001152  -0.005898
    9  C  1  Z    0.000000   0.000000   0.000000   0.000000   0.000000
   10  C  2  S    0.984442   0.036564   0.036587  -0.163067   0.034634
   11  C  2  S    0.108428   0.002068  -0.000452   0.174274  -0.037398
   12  C  2  X    0.000717   0.000158  -0.002837   0.057759  -0.095246
   13  C  2  Y   -0.000419   0.000734  -0.001519  -0.008655  -0.149503
   14  C  2  Z    0.000000   0.000000   0.000000   0.000000   0.000000
   15  C  2  S   -0.088363   0.014738   0.024441   0.343820  -0.091239
   16  C  2  X   -0.011534  -0.003516   0.013875   0.015456  -0.018654
   17  C  2  Y    0.005672  -0.016670   0.008826  -0.003045  -0.021659
   18  C  2  Z    0.000000   0.000000   0.000000   0.000000   0.000000
   19  C  3  S   -0.038167   0.984991   0.033359  -0.122811  -0.161721
   20  C  3  S   -0.006490   0.112133   0.002892   0.119603   0.154585
   21  C  3  X    0.000377  -0.000048  -0.000527   0.007890  -0.017330
   22  C  3  Y   -0.000695  -0.000041  -0.000841   0.055997  -0.021421
   23  C  3  Z    0.000000   0.000000   0.000000   0.000000   0.000000
   24  C  3  S    0.023178  -0.092574  -0.001321   0.310681   0.495426
   25  C  3  X    0.000828   0.000587   0.000267   0.002102  -0.011203
   26  C  3  Y    0.013492  -0.005887   0.002251   0.007090   0.000923
   27  C  3  Z    0.000000   0.000000   0.000000   0.000000   0.000000
   28  H  4  S   -0.001623  -0.000211  -0.001996   0.055164  -0.074405
   29  H  4  S   -0.002040   0.001001   0.013432   0.005708  -0.017794
   30  H  5  S   -0.000503  -0.000228  -0.001960   0.050579  -0.089061
   31  H  5  S    0.002191   0.001331   0.014165  -0.004093  -0.023940
   32  H  6  S   -0.002148  -0.000988  -0.001183   0.073778  -0.018197
   33  H  6  S    0.011303   0.001426   0.001925   0.006417  -0.004039
   34  H  7  S   -0.001479  -0.000209  -0.000270   0.058238   0.094723
   35  H  7  S    0.001824   0.015972   0.000841  -0.004308   0.016350
   36  H  8  S   -0.001479  -0.000209  -0.000270   0.058238   0.094723
   37  H  8  S    0.001824   0.015972   0.000841  -0.004308   0.016350
   38  H  9  S   -0.000841   0.000011  -0.000172   0.054898   0.103315
   39  H  9  S   -0.000572   0.016052   0.002090  -0.002425   0.021557

                      6          7          8          9         10
                   -0.5471    -0.4630    -0.4183    -0.4108    -0.3627
                     A'         A'         A'         A''        A'  
    1  C  1  S    0.098320  -0.021467  -0.002967   0.000000   0.026816
    2  C  1  S   -0.099342   0.016817  -0.003697   0.000000  -0.032541
    3  C  1  X   -0.159669   0.031095   0.303747   0.000000   0.135591
    4  C  1  Y   -0.034904   0.283647  -0.048088   0.000000   0.196762
    5  C  1  Z    0.000000   0.000000   0.000000   0.060018   0.000000
    6  C  1  S   -0.331397   0.109890   0.056475   0.000000  -0.095767
    7  C  1  X   -0.075040  -0.002986   0.183756   0.000000   0.083406
    8  C  1  Y    0.000990   0.164191  -0.047098   0.000000   0.133553
    9  C  1  Z    0.000000   0.000000   0.000000   0.050937   0.000000
   10  C  2  S   -0.128397   0.034846  -0.004072   0.000000  -0.004472
   11  C  2  S    0.132175  -0.038445   0.000625   0.000000  -0.001796
   12  C  2  X   -0.139181  -0.215813  -0.172252   0.000000  -0.189979
   13  C  2  Y    0.043407   0.123141  -0.214918   0.000000  -0.128899
   14  C  2  Z    0.000000   0.000000   0.000000   0.131384   0.000000
   15  C  2  S    0.430570  -0.118762   0.025159   0.000000   0.049212
   16  C  2  X   -0.069488  -0.145376  -0.110468   0.000000  -0.101820
   17  C  2  Y    0.012724   0.088922  -0.134226   0.000000  -0.056948
   18  C  2  Z    0.000000   0.000000   0.000000   0.099546   0.000000
   19  C  3  S    0.054994  -0.015816   0.009120   0.000000  -0.008774
   20  C  3  S   -0.051153   0.011470  -0.005555   0.000000   0.008221
   21  C  3  X   -0.045903  -0.164716  -0.158176   0.000000   0.302046
   22  C  3  Y    0.126295  -0.123035   0.198605   0.000000   0.117968
   23  C  3  Z    0.000000   0.000000   0.000000   0.371516   0.000000
   24  C  3  S   -0.212782   0.079404  -0.053840   0.000000   0.041314
   25  C  3  X   -0.032130  -0.116575  -0.110187   0.000000   0.239545
   26  C  3  Y    0.055104  -0.064862   0.137709   0.000000   0.093998
   27  C  3  Z    0.000000   0.000000   0.000000   0.285386   0.000000
   28  H  4  S   -0.140634  -0.043268   0.191333   0.000000  -0.005125
   29  H  4  S   -0.078809  -0.032195   0.164353   0.000000   0.015792
   30  H  5  S   -0.097005   0.188223  -0.027833   0.000000   0.119899
   31  H  5  S   -0.054755   0.148343  -0.018346   0.000000   0.131766
   32  H  6  S    0.174583   0.115659   0.036851   0.000000   0.080797
   33  H  6  S    0.094911   0.094483   0.035328   0.000000   0.079340
   34  H  7  S   -0.074093  -0.005155  -0.102691  -0.206503   0.077307
   35  H  7  S   -0.043329  -0.003320  -0.086035  -0.182506   0.073864
   36  H  8  S   -0.074093  -0.005155  -0.102691   0.206503   0.077307
   37  H  8  S   -0.043329  -0.003320  -0.086035   0.182506   0.073864
   38  H  9  S   -0.035518   0.132001   0.054391   0.000000  -0.238321
   39  H  9  S   -0.012802   0.103929   0.053487   0.000000  -0.243509

                     11         12         13         14         15
                   -0.3400    -0.2460     0.0281     0.1342     0.1595
                     A'         A''        A''        A'         A'  
    1  C  1  S   -0.006029   0.000000   0.000000   0.056526  -0.025727
    2  C  1  S    0.009131   0.000000   0.000000  -0.043127   0.028411
    3  C  1  X   -0.133643   0.000000   0.000000  -0.027690   0.090836
    4  C  1  Y    0.177568   0.000000   0.000000  -0.108710  -0.077841
    5  C  1  Z    0.000000   0.347662   0.340782   0.000000   0.000000
    6  C  1  S    0.010470   0.000000   0.000000  -0.605034   0.223807
    7  C  1  X   -0.090611   0.000000   0.000000  -0.245653   0.341464
    8  C  1  Y    0.157755   0.000000   0.000000  -0.420695  -0.144521
    9  C  1  Z    0.000000   0.365854   0.643895   0.000000   0.000000
   10  C  2  S   -0.007190   0.000000   0.000000   0.064713   0.032406
   11  C  2  S    0.010859   0.000000   0.000000  -0.034529  -0.000712
   12  C  2  X    0.151114   0.000000   0.000000   0.161507   0.079378
   13  C  2  Y   -0.236233   0.000000   0.000000  -0.078060  -0.041187
   14  C  2  Z    0.000000   0.321460  -0.364411   0.000000   0.000000
   15  C  2  S    0.013179   0.000000   0.000000  -0.948743  -0.348623
   16  C  2  X    0.134828   0.000000   0.000000   0.355965   0.282015
   17  C  2  Y   -0.168836   0.000000   0.000000  -0.275736   0.010100
   18  C  2  Z    0.000000   0.340406  -0.626534   0.000000   0.000000
   19  C  3  S   -0.024336   0.000000   0.000000   0.068720  -0.133600
   20  C  3  S    0.024980   0.000000   0.000000  -0.033662   0.059129
   21  C  3  X   -0.078352   0.000000   0.000000   0.135933   0.126022
   22  C  3  Y    0.245686   0.000000   0.000000   0.070566  -0.143604
   23  C  3  Z    0.000000  -0.112201  -0.022791   0.000000   0.000000
   24  C  3  S    0.101970   0.000000   0.000000  -0.900708   1.801523
   25  C  3  X   -0.081783   0.000000   0.000000   0.496574   0.382783
   26  C  3  Y    0.182277   0.000000   0.000000   0.293832  -0.474678
   27  C  3  Z    0.000000  -0.104724  -0.179109   0.000000   0.000000
   28  H  4  S   -0.163061   0.000000   0.000000  -0.027728  -0.009399
   29  H  4  S   -0.183227   0.000000   0.000000   0.173559  -0.611023
   30  H  5  S    0.155145   0.000000   0.000000   0.071372  -0.001705
   31  H  5  S    0.149598   0.000000   0.000000   0.869518   0.091470
   32  H  6  S   -0.194065   0.000000   0.000000   0.055185   0.081130
   33  H  6  S   -0.198688   0.000000   0.000000   1.042708   0.624615
   34  H  7  S   -0.077237   0.093493  -0.079770  -0.025833  -0.042633
   35  H  7  S   -0.100160   0.108269  -0.332578   0.131102  -1.154647
   36  H  8  S   -0.077237  -0.093493   0.079770  -0.025833  -0.042633
   37  H  8  S   -0.100160  -0.108269   0.332578   0.131102  -1.154647
   38  H  9  S    0.024019   0.000000   0.000000   0.082642   0.018972
   39  H  9  S    0.000817   0.000000   0.000000   1.109986  -0.313026

                     16         17         18         19         20
                    0.1752     0.2094     0.2149     0.2306     0.3263
                     A'         A'         A''        A'         A'  
    1  C  1  S   -0.124185   0.055431   0.000000   0.045338  -0.026438
    2  C  1  S    0.064872  -0.022966   0.000000  -0.032211  -0.000945
    3  C  1  X    0.202864   0.061540   0.000000   0.074860   0.122387
    4  C  1  Y   -0.024065  -0.282164   0.000000  -0.011933  -0.172689
    5  C  1  Z    0.000000   0.000000   0.107149   0.000000   0.000000
    6  C  1  S    1.627606  -0.838273   0.000000  -0.371027   0.427054
    7  C  1  X    0.614545   0.342631   0.000000   0.357905   0.439054
    8  C  1  Y   -0.072742  -0.873179   0.000000  -0.155781  -1.317384
    9  C  1  Z    0.000000   0.000000   0.213730   0.000000   0.000000
   10  C  2  S    0.005528  -0.049331   0.000000  -0.138545   0.072279
   11  C  2  S   -0.021704   0.020225   0.000000   0.073739  -0.018488
   12  C  2  X    0.005774   0.016135   0.000000  -0.140337  -0.168604
   13  C  2  Y   -0.112939  -0.096102   0.000000  -0.023192   0.321251
   14  C  2  Z    0.000000   0.000000  -0.123275   0.000000   0.000000
   15  C  2  S    0.075701   0.648962   0.000000   1.936566  -1.222740
   16  C  2  X   -0.016992   0.081408   0.000000  -0.608436  -0.900427
   17  C  2  Y   -0.488612  -0.147600   0.000000  -0.106769   1.767098
   18  C  2  Z    0.000000   0.000000  -0.436595   0.000000   0.000000
   19  C  3  S    0.083685   0.021990   0.000000   0.067181  -0.068303
   20  C  3  S   -0.027006  -0.020680   0.000000  -0.030326  -0.008088
   21  C  3  X    0.027023  -0.219015   0.000000   0.218574   0.032344
   22  C  3  Y   -0.008378  -0.148978   0.000000  -0.137520   0.148680
   23  C  3  Z    0.000000   0.000000   0.379194   0.000000   0.000000
   24  C  3  S   -1.169979  -0.099858   0.000000  -0.819298   1.326240
   25  C  3  X   -0.067374  -0.792841   0.000000   0.896472   0.363743
   26  C  3  Y   -0.139628  -0.499756   0.000000  -0.698984   1.513752
   27  C  3  Z    0.000000   0.000000   1.382011   0.000000   0.000000
   28  H  4  S   -0.107367  -0.009232   0.000000  -0.013649   0.043472
   29  H  4  S   -1.535642  -0.489008   0.000000  -0.185318  -1.124981
   30  H  5  S   -0.013400   0.058451   0.000000   0.037370  -0.044134
   31  H  5  S   -0.575890   1.501372   0.000000   0.414526   0.985764
   32  H  6  S    0.035485   0.008329   0.000000  -0.012113   0.025348
   33  H  6  S    0.345591  -0.047976   0.000000  -1.318728  -1.166031
   34  H  7  S    0.030596   0.007020   0.061691  -0.044966   0.054653
   35  H  7  S    0.415046   0.291261   1.388245  -0.431021   0.027800
   36  H  8  S    0.030596   0.007020  -0.061691  -0.044966   0.054653
   37  H  8  S    0.415046   0.291261  -1.388245  -0.431021   0.027800
   38  H  9  S   -0.028679  -0.060301   0.000000   0.041181   0.073106
   39  H  9  S    0.317853  -1.056719   0.000000   1.124820   0.337843

                     21         22         23         24         25
                    0.3891     0.6564     0.7150     0.7265     0.7520
                     A'         A'         A'         A''        A'  
    1  C  1  S   -0.103389   0.003569   0.008905   0.000000   0.025064
    2  C  1  S    0.000320  -0.121644   0.032639   0.000000  -0.109325
    3  C  1  X   -0.148113   0.357425  -0.482822   0.000000   0.306166
    4  C  1  Y   -0.034010   0.431094   0.111602   0.000000   0.143413
    5  C  1  Z    0.000000   0.000000   0.000000  -0.581103   0.000000
    6  C  1  S    2.709022  -0.245152   0.442562   0.000000  -0.270745
    7  C  1  X   -2.246901  -0.193148   0.757709   0.000000  -0.200427
    8  C  1  Y   -1.259366  -0.586568  -0.263736   0.000000  -0.060393
    9  C  1  Z    0.000000   0.000000   0.000000   0.482127   0.000000
   10  C  2  S    0.083741  -0.024512   0.012993   0.000000  -0.062502
   11  C  2  S   -0.000578  -0.025173   0.065166   0.000000  -0.014612
   12  C  2  X   -0.244033  -0.254315   0.176457   0.000000   0.068286
   13  C  2  Y   -0.151037  -0.166403   0.468992   0.000000  -0.240309
   14  C  2  Z    0.000000   0.000000   0.000000  -0.687064   0.000000
   15  C  2  S   -2.385305  -0.246443  -0.156200   0.000000  -0.422568
   16  C  2  X   -2.289566   0.446467  -0.436750   0.000000   0.143121
   17  C  2  Y   -1.452657   0.542374  -0.568251   0.000000   0.706255
   18  C  2  Z    0.000000   0.000000   0.000000   0.360439   0.000000
   19  C  3  S    0.004278   0.009264  -0.000946   0.000000   0.036399
   20  C  3  S   -0.007505  -0.066077   0.000377   0.000000  -0.118984
   21  C  3  X   -0.023650  -0.483357  -0.134062   0.000000   0.220410
   22  C  3  Y   -0.103547  -0.148056  -0.488979   0.000000  -0.851153
   23  C  3  Z    0.000000   0.000000   0.000000  -0.357011   0.000000
   24  C  3  S   -0.258586   0.326421  -0.317866   0.000000   0.194070
   25  C  3  X    0.572558   0.604856   0.276588   0.000000  -0.438644
   26  C  3  Y   -0.477245   0.275415   0.595334   0.000000   1.298595
   27  C  3  Z    0.000000   0.000000   0.000000   0.710198   0.000000
   28  H  4  S    0.041894  -0.160445  -0.385488   0.000000   0.129840
   29  H  4  S    0.413697  -0.025462  -0.153405   0.000000   0.032090
   30  H  5  S    0.110874   0.176968   0.252728   0.000000  -0.047108
   31  H  5  S    0.255370   0.066892  -0.076158   0.000000   0.028877
   32  H  6  S   -0.020593   0.198353   0.261918   0.000000  -0.420010
   33  H  6  S   -0.469113  -0.047740  -0.170864   0.000000   0.144965
   34  H  7  S   -0.020315  -0.221300   0.066270   0.322724   0.207543
   35  H  7  S   -0.280398   0.076470   0.008588   0.083499   0.180435
   36  H  8  S   -0.020315  -0.221300   0.066270  -0.322724   0.207543
   37  H  8  S   -0.280398   0.076470   0.008588  -0.083499   0.180435
   38  H  9  S   -0.050437   0.429706   0.116523   0.000000  -0.035851
   39  H  9  S    0.112209  -0.098848   0.087494   0.000000   0.049927

                     26         27         28         29         30
                    0.7937     0.8504     0.8645     0.9365     0.9630
                     A''        A'         A''        A'         A'  
    1  C  1  S    0.000000   0.081636   0.000000   0.002346  -0.007824
    2  C  1  S    0.000000   0.145433   0.000000   0.165707   0.040522
    3  C  1  X    0.000000   0.357252   0.000000  -0.357470  -0.034605
    4  C  1  Y    0.000000   0.242549   0.000000  -0.175323  -0.009914
    5  C  1  Z    0.851108   0.000000  -0.310223   0.000000   0.000000
    6  C  1  S    0.000000  -0.228851   0.000000  -0.259757  -1.256012
    7  C  1  X    0.000000  -0.595382   0.000000   0.426638   0.172476
    8  C  1  Y    0.000000  -0.375680   0.000000   0.111225   0.306682
    9  C  1  Z   -0.866766   0.000000   0.673798   0.000000   0.000000
   10  C  2  S    0.000000  -0.041463   0.000000   0.014108   0.009718
   11  C  2  S    0.000000   0.147707   0.000000   0.277229  -0.043046
   12  C  2  X    0.000000   0.432743   0.000000   0.065768  -0.683067
   13  C  2  Y    0.000000   0.423733   0.000000  -0.635364   0.076860
   14  C  2  Z   -0.209135   0.000000   0.803225   0.000000   0.000000
   15  C  2  S    0.000000  -0.089823   0.000000  -0.186439   0.170349
   16  C  2  X    0.000000  -0.295163   0.000000   0.004933   2.267036
   17  C  2  Y    0.000000  -0.561620   0.000000   0.967212  -0.164139
   18  C  2  Z    0.167439   0.000000  -1.387001   0.000000   0.000000
   19  C  3  S    0.000000  -0.009190   0.000000   0.069074  -0.006575
   20  C  3  S    0.000000   0.017070   0.000000  -0.062459   0.035503
   21  C  3  X    0.000000   0.046296   0.000000  -0.050609   0.809706
   22  C  3  Y    0.000000   0.135187   0.000000   0.017316  -0.028116
   23  C  3  Z   -0.509691   0.000000  -0.557728   0.000000   0.000000
   24  C  3  S    0.000000  -0.210181   0.000000   0.282305  -0.070872
   25  C  3  X    0.000000  -0.145676   0.000000   0.145796  -1.999311
   26  C  3  Y    0.000000  -0.315241   0.000000   0.512702   0.035133
   27  C  3  Z    0.900676   0.000000   1.463166   0.000000   0.000000
   28  H  4  S    0.000000   0.638366   0.000000   0.378400  -0.088231
   29  H  4  S    0.000000  -0.165311   0.000000  -0.350952   0.292362
   30  H  5  S    0.000000   0.726197   0.000000   0.250160   0.347439
   31  H  5  S    0.000000  -0.187269   0.000000  -0.240908  -0.253050
   32  H  6  S    0.000000   0.063648   0.000000   0.551124   0.306780
   33  H  6  S    0.000000  -0.012402   0.000000  -0.589138   0.892237
   34  H  7  S    0.273974   0.007347   0.248364   0.417254  -0.070321
   35  H  7  S    0.110435  -0.015713   0.363012  -0.107386   0.523065
   36  H  8  S   -0.273974   0.007347  -0.248364   0.417254  -0.070321
   37  H  8  S   -0.110435  -0.015713  -0.363012  -0.107386   0.523065
   38  H  9  S    0.000000  -0.083091   0.000000   0.435088   0.092184
   39  H  9  S    0.000000  -0.101152   0.000000  -0.005948  -1.067305

                     31         32         33         34         35
                    1.0370     1.0547     1.0887     1.0961     1.1340
                     A'         A''        A'         A'         A'  
    1  C  1  S    0.003167   0.000000   0.007879   0.018062   0.024961
    2  C  1  S   -0.002781   0.000000  -0.046515  -0.064138  -0.101567
    3  C  1  X    0.474508   0.000000  -0.175478  -0.423587  -0.352124
    4  C  1  Y   -0.796733   0.000000   0.415624  -0.080621  -0.437382
    5  C  1  Z    0.000000  -0.052563   0.000000   0.000000   0.000000
    6  C  1  S   -0.003784   0.000000  -0.939400   0.192077  -0.255486
    7  C  1  X   -0.940489   0.000000   0.727784   0.576005   0.872364
    8  C  1  Y    1.621069   0.000000  -0.556227   0.366855   0.832977
    9  C  1  Z    0.000000   0.036906   0.000000   0.000000   0.000000
   10  C  2  S   -0.019203   0.000000  -0.013922  -0.036303   0.024065
   11  C  2  S    0.103048   0.000000   0.070403   0.169669  -0.080177
   12  C  2  X   -0.196936   0.000000  -0.455709  -0.503043  -0.213520
   13  C  2  Y    0.180168   0.000000   0.002412   0.282508  -0.278814
   14  C  2  Z    0.000000  -0.128811   0.000000   0.000000   0.000000
   15  C  2  S   -0.028101   0.000000   0.175466   0.161773   0.313597
   16  C  2  X    0.533227   0.000000   1.384692   0.579420   0.645720
   17  C  2  Y   -0.901896   0.000000   0.438871  -0.694199   1.059121
   18  C  2  Z    0.000000   0.101527   0.000000   0.000000   0.000000
   19  C  3  S    0.023189   0.000000   0.003289   0.038190  -0.075960
   20  C  3  S    0.023489   0.000000  -0.045962  -0.109486   0.301443
   21  C  3  X   -0.286765   0.000000  -0.382602  -0.113310  -0.243587
   22  C  3  Y    0.023916   0.000000   0.126423   0.112590  -0.391375
   23  C  3  Z    0.000000  -0.756149   0.000000   0.000000   0.000000
   24  C  3  S   -0.512617   0.000000   0.339650  -0.243673  -0.060568
   25  C  3  X    0.401269   0.000000  -0.146897   0.377403   0.421968
   26  C  3  Y   -0.206918   0.000000  -0.043894  -0.411954   0.904527
   27  C  3  Z    0.000000   0.910106   0.000000   0.000000   0.000000
   28  H  4  S   -0.501182   0.000000   0.068528   0.470270   0.422547
   29  H  4  S    1.352300   0.000000  -0.458937  -0.709946  -0.605541
   30  H  5  S    0.517588   0.000000   0.033043   0.064477   0.390416
   31  H  5  S   -1.385574   0.000000   0.431283  -0.259837  -0.843851
   32  H  6  S   -0.107248   0.000000  -0.019501  -0.868904   0.044430
   33  H  6  S    0.546368   0.000000   0.612982   1.309011  -0.061104
   34  H  7  S    0.292672  -0.800918   0.474549   0.054126  -0.490106
   35  H  7  S   -0.317673   1.223150  -0.515697  -0.147043   0.459001
   36  H  8  S    0.292672   0.800918   0.474549   0.054126  -0.490106
   37  H  8  S   -0.317673  -1.223150  -0.515697  -0.147043   0.459001
   38  H  9  S   -0.032764   0.000000  -0.871905   0.565877  -0.530861
   39  H  9  S    0.374876   0.000000   0.801467  -0.328401   0.868684

                     36         37         38         39
                    1.3687     1.4736     1.7460     1.9250
                     A'         A'         A'         A'  
    1  C  1  S    0.025155  -0.019719  -0.006690  -0.008390
    2  C  1  S   -0.742007   1.125090  -1.269114  -0.328382
    3  C  1  X   -0.241199  -0.105929   0.027667  -0.054670
    4  C  1  Y    0.110006   0.206979   0.104913  -0.073770
    5  C  1  Z    0.000000   0.000000   0.000000   0.000000
    6  C  1  S    0.884600  -1.966065   3.556825   1.356587
    7  C  1  X    1.339977   1.119661  -0.769313   0.013677
    8  C  1  Y   -1.425188  -1.590807  -0.954082  -0.566338
    9  C  1  Z    0.000000   0.000000   0.000000   0.000000
   10  C  2  S    0.013835  -0.011154  -0.000839   0.045898
   11  C  2  S   -0.837439   0.654494   1.192750   1.109086
   12  C  2  X    0.241981   0.076286   0.122999   0.058914
   13  C  2  Y   -0.359545  -0.384857  -0.069657  -0.056943
   14  C  2  Z    0.000000   0.000000   0.000000   0.000000
   15  C  2  S    1.287916  -0.581013  -3.060647  -3.548342
   16  C  2  X   -1.169788  -0.576860  -1.296592  -0.525708
   17  C  2  Y    1.940018   2.304976  -0.418992   1.431193
   18  C  2  Z    0.000000   0.000000   0.000000   0.000000
   19  C  3  S   -0.001746  -0.031970  -0.003108  -0.072648
   20  C  3  S   -0.298676   0.313642   0.965131  -1.804429
   21  C  3  X    0.137869   0.086908   0.113583   0.060410
   22  C  3  Y    0.260604   0.095352   0.109602   0.028382
   23  C  3  Z    0.000000   0.000000   0.000000   0.000000
   24  C  3  S    1.433015   0.815435  -1.359142   4.780580
   25  C  3  X   -0.027344   0.016973  -0.035619  -0.031381
   26  C  3  Y   -0.010663   0.771952   0.179199   0.940729
   27  C  3  Z    0.000000   0.000000   0.000000   0.000000
   28  H  4  S   -0.384027  -0.506912  -0.190113  -0.135490
   29  H  4  S   -0.920572  -0.081497  -0.434466  -0.333198
   30  H  5  S    0.684836   0.406157  -0.033707   0.063675
   31  H  5  S   -0.070595   0.973160  -0.145759  -0.091331
   32  H  6  S   -0.395323  -0.539947  -0.015279   0.075724
   33  H  6  S   -1.088831  -0.265807   0.124038   0.000851
   34  H  7  S    0.033060  -0.142063   0.014793  -0.323736
   35  H  7  S   -0.238559   0.268167   0.443506  -0.481626
   36  H  8  S    0.033060  -0.142063   0.014793  -0.323736
   37  H  8  S   -0.238559   0.268167   0.443506  -0.481626
   38  H  9  S    0.033205  -0.074671   0.082156  -0.303641
   39  H  9  S   -0.312969   0.139558   0.191226  -0.631895
 ...... END OF RHF CALCULATION ......
 STEP CPU TIME =     4.25 TOTAL CPU TIME =          4.3 (      0.1 MIN)
 TOTAL WALL CLOCK TIME=          4.4 SECONDS, CPU UTILIZATION IS    97.72%

     ---------------------------------------------------------------------
     PROPERTIES FOR THE B3LYP    DFT FUNCTIONAL (RHF  TYPE) DENSITY MATRIX
     ---------------------------------------------------------------------

          -----------------
          ENERGY COMPONENTS
          -----------------

         WAVEFUNCTION NORMALIZATION =       1.0000000000

                ONE ELECTRON ENERGY =    -296.2618937737
                TWO ELECTRON ENERGY =     108.2328019839
           NUCLEAR REPULSION ENERGY =      70.8529312776
                                      ------------------
                       TOTAL ENERGY =    -117.1761605123

 ELECTRON-ELECTRON POTENTIAL ENERGY =     108.2328019839
  NUCLEUS-ELECTRON POTENTIAL ENERGY =    -412.4652578059
   NUCLEUS-NUCLEUS POTENTIAL ENERGY =      70.8529312776
                                      ------------------
             TOTAL POTENTIAL ENERGY =    -233.3795245445
               TOTAL KINETIC ENERGY =     116.2033640322
                 VIRIAL RATIO (V/T) =       2.0083715002

          ---------------------------------------
          MULLIKEN AND LOWDIN POPULATION ANALYSES
          ---------------------------------------

     ATOMIC MULLIKEN POPULATION IN EACH MOLECULAR ORBITAL

                      1          2          3          4          5

                  2.000000   2.000000   2.000000   2.000000   2.000000

    1             0.010708   0.002681   1.981213   0.484788   0.588215
    2             1.979005   0.008456   0.010925   0.833215   0.211926
    3             0.008056   1.979165   0.002351   0.547416   0.850252
    4            -0.000035  -0.000002   0.002619   0.023311   0.045294
    5             0.000044  -0.000007   0.002792   0.013585   0.068769
    6             0.002165   0.000036   0.000066   0.040279   0.002640
    7             0.000032   0.003213   0.000008   0.019339   0.071550
    8             0.000032   0.003213   0.000008   0.019339   0.071550
    9            -0.000008   0.003244   0.000017   0.018728   0.089805

                      6          7          8          9         10

                  2.000000   2.000000   2.000000   2.000000   2.000000

    1             0.496304   0.580826   0.582941   0.037067   0.292835
    2             0.617508   0.456473   0.421014   0.163668   0.227305
    3             0.233046   0.329832   0.447678   1.041198   0.706795
    4             0.183570   0.015922   0.319161   0.000000   0.000950
    5             0.084834   0.324321   0.005234   0.000000   0.131311
    6             0.267917   0.128062   0.013082   0.000000   0.052793
    7             0.053524   0.000197   0.091938   0.379033   0.048500
    8             0.053524   0.000197   0.091938   0.379033   0.048500
    9             0.009774   0.164169   0.027013   0.000000   0.491012

                     11         12

                  2.000000   2.000000

    1             0.315928   0.997670
    2             0.432701   0.819272
    3             0.397239   0.061675
    4             0.233428   0.000000
    5             0.188334   0.000000
    6             0.305701   0.000000
    7             0.062003   0.060692
    8             0.062003   0.060692
    9             0.002662   0.000000

               ----- POPULATIONS IN EACH AO -----
                             MULLIKEN      LOWDIN
              1  C  1  S      1.98514     1.97533
              2  C  1  S      0.40170     0.42738
              3  C  1  X      0.61476     0.57546
              4  C  1  Y      0.59440     0.54996
              5  C  1  Z      0.44975     0.43687
              6  C  1  S      0.95922     0.57787
              7  C  1  X      0.35295     0.52008
              8  C  1  Y      0.42826     0.53988
              9  C  1  Z      0.58499     0.60297
             10  C  2  S      1.98581     1.97512
             11  C  2  S      0.40277     0.42272
             12  C  2  X      0.62796     0.58781
             13  C  2  Y      0.59189     0.55788
             14  C  2  Z      0.43563     0.41778
             15  C  2  S      0.91246     0.55039
             16  C  2  X      0.37764     0.52119
             17  C  2  Y      0.30000     0.49860
             18  C  2  Z      0.54731     0.56083
             19  C  3  S      1.98641     1.97423
             20  C  3  S      0.36973     0.41968
             21  C  3  X      0.57303     0.53241
             22  C  3  Y      0.56006     0.53094
             23  C  3  Z      0.57016     0.52874
             24  C  3  S      1.11454     0.57131
             25  C  3  X      0.52164     0.58685
             26  C  3  Y      0.37642     0.53569
             27  C  3  Z      0.53271     0.59155
             28  H  4  S      0.47525     0.46590
             29  H  4  S      0.34897     0.44580
             30  H  5  S      0.47922     0.46908
             31  H  5  S      0.33999     0.43999
             32  H  6  S      0.48220     0.47766
             33  H  6  S      0.33054     0.43329
             34  H  7  S      0.46919     0.46753
             35  H  7  S      0.32084     0.42868
             36  H  8  S      0.46919     0.46753
             37  H  8  S      0.32084     0.42868
             38  H  9  S      0.47358     0.47278
             39  H  9  S      0.33283     0.43358

          ----- MULLIKEN ATOMIC OVERLAP POPULATIONS -----
          (OFF-DIAGONAL ELEMENTS NEED TO BE MULTIPLIED BY 2)

             1           2           3           4           5

    1    5.1752511
    2    0.5653737   5.1478601
    3   -0.0859557   0.2984183   5.3392776
    4    0.3860626  -0.0530205  -0.0046921   0.5187812
    5    0.3795635  -0.0439283   0.0037210  -0.0291609   0.5137214
    6   -0.0448570   0.3915196  -0.0461119   0.0034091  -0.0045324
    7   -0.0041845  -0.0441005   0.3681035   0.0013983  -0.0000342
    8   -0.0041845  -0.0441005   0.3681035   0.0013983  -0.0000342
    9    0.0041069  -0.0365546   0.3638389   0.0000419  -0.0000992

             6           7           8           9

    6    0.5125904
    7    0.0024957   0.5169806
    8    0.0024957  -0.0239740   0.5169806
    9   -0.0042676  -0.0266541  -0.0266541   0.5326574

          TOTAL MULLIKEN AND LOWDIN ATOMIC POPULATIONS
       ATOM         MULL.POP.    CHARGE          LOW.POP.     CHARGE
    1 C             6.371176   -0.371176         6.205790   -0.205790
    2 C             6.181467   -0.181467         6.092316   -0.092316
    3 C             6.604703   -0.604703         6.271402   -0.271402
    4 H             0.824218    0.175782         0.911696    0.088304
    5 H             0.819217    0.180783         0.909070    0.090930
    6 H             0.812742    0.187258         0.910946    0.089054
    7 H             0.790031    0.209969         0.896211    0.103789
    8 H             0.790031    0.209969         0.896211    0.103789
    9 H             0.806416    0.193584         0.906358    0.093642

          -------------------------------
          BOND ORDER AND VALENCE ANALYSIS     BOND ORDER THRESHOLD=0.050
          -------------------------------

                   BOND                       BOND                       BOND
  ATOM PAIR DIST  ORDER      ATOM PAIR DIST  ORDER      ATOM PAIR DIST  ORDER
    1   2  1.336  1.916        1   4  1.087  0.936        1   5  1.080  0.932
    2   3  1.501  0.963        2   6  1.079  0.929        3   7  1.091  0.913
    3   8  1.091  0.913        3   9  1.091  0.926

                       TOTAL       BONDED        FREE
      ATOM            VALENCE     VALENCE     VALENCE
    1 C                 3.781       3.781       0.000
    2 C                 3.758       3.758      -0.000
    3 C                 3.693       3.693       0.000
    4 H                 0.935       0.935      -0.000
    5 H                 0.931       0.931       0.000
    6 H                 0.927       0.927      -0.000
    7 H                 0.911       0.911       0.000
    8 H                 0.911       0.911       0.000
    9 H                 0.918       0.918       0.000

          ---------------------
          ELECTROSTATIC MOMENTS
          ---------------------

 POINT   1           X           Y           Z (BOHR)    CHARGE
                 0.000864   -0.000917    0.000000        0.00 (A.U.)
         DX          DY          DZ         /D/  (DEBYE)
    -0.158401   -0.295561   -0.000000    0.335331
 ...... END OF PROPERTY EVALUATION ......
 STEP CPU TIME =     0.01 TOTAL CPU TIME =          4.3 (      0.1 MIN)
 TOTAL WALL CLOCK TIME=          4.4 SECONDS, CPU UTILIZATION IS    97.50%

 BEGINNING ONE ELECTRON GRADIENT...
 ..... END OF 1-ELECTRON GRADIENT ......
 STEP CPU TIME =     0.01 TOTAL CPU TIME =          4.3 (      0.1 MIN)
 TOTAL WALL CLOCK TIME=          4.4 SECONDS, CPU UTILIZATION IS    97.51%

          ----------------------
          GRADIENT OF THE ENERGY
          ----------------------
 MEMORY FOR GRID POINT CONTRIBUTIONS TO THE DFT GRADIENT=    584845 WORDS.
 STEP CPU TIME =     1.20 TOTAL CPU TIME =          5.5 (      0.1 MIN)
 TOTAL WALL CLOCK TIME=          5.6 SECONDS, CPU UTILIZATION IS    97.86%
 THE COARSE/FINE SCHWARZ SCREENINGS SKIPPED         2081/        1211 BLOCKS.
 THE NUMBER OF GRADIENT INTEGRAL BLOCKS COMPUTED WAS     16077
 ...... END OF 2-ELECTRON GRADIENT ......
 STEP CPU TIME =     0.02 TOTAL CPU TIME =          5.5 (      0.1 MIN)
 TOTAL WALL CLOCK TIME=          5.6 SECONDS, CPU UTILIZATION IS    97.87%

          NSERCH=  0     ENERGY=    -117.1761605

                                 -----------------------
                                 GRADIENT (HARTREE/BOHR)
                                 -----------------------
        ATOM     ZNUC       DE/DX         DE/DY         DE/DZ
 --------------------------------------------------------------
    1  C            6.0     0.0080967     0.0021742     0.0000000
    2  C            6.0    -0.0142862    -0.0064542     0.0000000
    3  C            6.0     0.0081668     0.0043589     0.0000000
    4  H            1.0    -0.0004501    -0.0014233     0.0000000
    5  H            1.0    -0.0030438    -0.0038841     0.0000000
    6  H            1.0     0.0046753    -0.0036135     0.0000000
    7  H            1.0    -0.0025677     0.0026485     0.0016065
    8  H            1.0    -0.0025677     0.0026485    -0.0016065
    9  H            1.0     0.0019766     0.0035448     0.0000000

          MAXIMUM GRADIENT = 0.0142862    RMS GRADIENT = 0.0043550

 NSERCH:   0  E=     -117.1761605123  GRAD. MAX=  0.0142862  R.M.S.=  0.0043550

          FORCE CONSTANT MATRIX NOT UPDATED --- TAKING FIRST STEP
          MIN SEARCH, CORRECT HESSIAN, TRYING PURE NR STEP
               NR STEP HAS LENGTH         =   0.154459
          RADIUS OF STEP TAKEN=   0.15446  CURRENT TRUST RADIUS=   0.30000

 BEGINNING GEOMETRY SEARCH POINT NSERCH=   1 ...

 COORDINATES OF SYMMETRY UNIQUE ATOMS (ANGS)
   ATOM   CHARGE       X              Y              Z
 ------------------------------------------------------------
 C           6.0   0.7795095010   1.0070585815   0.0000000000
 C           6.0  -0.3498252498   0.3091280720   0.0000000000
 C           6.0  -0.4515436437  -1.1940417758   0.0000000000
 H           1.0   1.7461771272   0.5050869418   0.0000000000
 H           1.0   0.8256405609   2.0900479278   0.0000000000
 H           1.0  -1.2962378734   0.8468824845   0.0000000000
 H           1.0   0.0680413085  -1.6165073169   0.8706375525
 H           1.0  -1.4798030392  -1.5511475979   0.0000000000
 COORDINATES OF ALL ATOMS ARE (ANGS)
   ATOM   CHARGE       X              Y              Z
 ------------------------------------------------------------
 C           6.0   0.7795095010   1.0070585815   0.0000000000
 C           6.0  -0.3498252498   0.3091280720   0.0000000000
 C           6.0  -0.4515436437  -1.1940417758   0.0000000000
 H           1.0   1.7461771272   0.5050869418   0.0000000000
 H           1.0   0.8256405609   2.0900479278   0.0000000000
 H           1.0  -1.2962378734   0.8468824845   0.0000000000
 H           1.0   0.0680413085  -1.6165073169  -0.8706375525
 H           1.0   0.0680413085  -1.6165073169   0.8706375525
 H           1.0  -1.4798030392  -1.5511475979   0.0000000000

          INTERNUCLEAR DISTANCES (ANGS.)
          ------------------------------

                1 C          2 C          3 C          4 H          5 H     

   1 C       0.0000000    1.3275933 *  2.5219704 *  1.0892299 *  1.0839714 *
   2 C       1.3275933 *  0.0000000    1.5066075 *  2.1051427 *  2.1338686 *
   3 C       2.5219704 *  1.5066075 *  0.0000000    2.7779516 *  3.5236976  
   4 H       1.0892299 *  2.1051427 *  2.7779516 *  0.0000000    1.8328909 *
   5 H       1.0839714 *  2.1338686 *  3.5236976    1.8328909 *  0.0000000  
   6 H       2.0819182 *  1.0885204 *  2.2088187 *  3.0615541    2.4592333 *
   7 H       2.8543466 *  2.1542270 *  1.0983876 *  2.8417093 *  3.8820765  
   8 H       2.8543466 *  2.1542270 *  1.0983876 *  2.8417093 *  3.8820765  
   9 H       3.4130503    2.1765742 *  1.0885045 *  3.8255782    4.3096839  

                6 H          7 H          8 H          9 H     

   1 C       2.0819182 *  2.8543466 *  2.8543466 *  3.4130503  
   2 C       1.0885204 *  2.1542270 *  2.1542270 *  2.1765742 *
   3 C       2.2088187 *  1.0983876 *  1.0983876 *  1.0885045 *
   4 H       3.0615541    2.8417093 *  2.8417093 *  3.8255782  
   5 H       2.4592333 *  3.8820765    3.8820765    4.3096839  
   6 H       0.0000000    2.9474662 *  2.9474662 *  2.4050456 *
   7 H       2.9474662 *  0.0000000    1.7412751 *  1.7771054 *
   8 H       2.9474662 *  1.7412751 *  0.0000000    1.7771054 *
   9 H       2.4050456 *  1.7771054 *  1.7771054 *  0.0000000  

  * ... LESS THAN  3.000

 ...... END OF ONE-ELECTRON INTEGRALS ......
 STEP CPU TIME =     0.00 TOTAL CPU TIME =          5.5 (      0.1 MIN)
 TOTAL WALL CLOCK TIME=          5.7 SECONDS, CPU UTILIZATION IS    97.70%
  ...... END OF TWO-ELECTRON INTEGRALS .....
 STEP CPU TIME =     0.01 TOTAL CPU TIME =          5.5 (      0.1 MIN)
 TOTAL WALL CLOCK TIME=          5.7 SECONDS, CPU UTILIZATION IS    97.70%

          --------------------------
             R-B3LYP SCF CALCULATION
          --------------------------
         DENSITY MATRIX CONVERGENCE THRESHOLD=  2.00E-05
     COARSE -> FINE DFT GRID SWITCH THRESHOLD=  3.00E-04 (SWITCH IN $DFT)
                   HF -> DFT SWITCH THRESHOLD=  5.00E-03 (SWOFF IN $DFT)

 DIRECT SCF CALCULATION, SCHWRZ=T   FDIFF=T,  DIRTHR=  0.00E+00 NITDIR=10

 DFT CODE IS SWITCHING FROM THE FINE GRID NRAD= 96,  NLEB=  590
                      TO THE COARSE GRID NRAD0= 24, NLEB0=  110

                                                                                   NONZERO     BLOCKS
 ITER EX DEM     TOTAL ENERGY        E CHANGE  DENSITY CHANGE    DIIS ERROR      INTEGRALS    SKIPPED
          * * *   INITIATING DIIS PROCEDURE   * * *
   1  0  0     -117.1743025743  -117.1743025743   0.008770416   0.013392435         165540       1712
   2  1  0     -117.1748207790    -0.0005182047   0.004744593   0.003349076         163503       2454
   3  2  0     -117.1747943909     0.0000263881   0.003147482   0.006097779         162048       2941
   4  3  0     -117.1748411058    -0.0000467149   0.000483637   0.000585218         161264       3111
   5  4  0     -117.1748417586    -0.0000006528   0.000089912   0.000106639         156744       3935
 DFT CODE IS SWITCHING BACK TO THE FINE GRID
          * * *   INITIATING DIIS PROCEDURE   * * *
   6  5  0     -117.1761961507    -0.0013543921   0.001921804   0.000443664         165539       1713
   7  6  0     -117.1761977664    -0.0000016157   0.000163949   0.000103773         160434       3212
   8  7  0     -117.1761977690    -0.0000000026   0.000146255   0.000128626         156132       4054
   9  8  0     -117.1761978085    -0.0000000395   0.000031641   0.000060086         154573       4449
  10  9  0     -117.1761978120    -0.0000000035   0.000008354   0.000009764         151248       5146
  11 10  0     -117.1761978122    -0.0000000002   0.000000741   0.000001115         147989       5644

          -----------------
          DENSITY CONVERGED
          -----------------
     TIME TO FORM FOCK OPERATORS=       3.9 SECONDS (       0.4 SEC/ITER)
     FOCK TIME ON FIRST ITERATION=       0.0, LAST ITERATION=       0.6
     TIME TO SOLVE SCF EQUATIONS=       0.1 SECONDS (       0.0 SEC/ITER)

 FINAL R-B3LYP ENERGY IS     -117.1761978122 AFTER  11 ITERATIONS
 DFT EXCHANGE + CORRELATION ENERGY =       -14.8279981755
 TOTAL ELECTRON NUMBER             =        23.9999793861
 ...... END OF RHF CALCULATION ......
 STEP CPU TIME =     4.11 TOTAL CPU TIME =          9.6 (      0.2 MIN)
 TOTAL WALL CLOCK TIME=          9.8 SECONDS, CPU UTILIZATION IS    98.17%
 ..... END OF 1-ELECTRON GRADIENT ......
 STEP CPU TIME =     0.00 TOTAL CPU TIME =          9.6 (      0.2 MIN)
 TOTAL WALL CLOCK TIME=          9.8 SECONDS, CPU UTILIZATION IS    98.07%
 MEMORY FOR GRID POINT CONTRIBUTIONS TO THE DFT GRADIENT=    584845 WORDS.
 STEP CPU TIME =     1.20 TOTAL CPU TIME =         10.8 (      0.2 MIN)
 TOTAL WALL CLOCK TIME=         11.0 SECONDS, CPU UTILIZATION IS    98.19%
 ...... END OF 2-ELECTRON GRADIENT ......
 STEP CPU TIME =     0.02 TOTAL CPU TIME =         10.9 (      0.2 MIN)
 TOTAL WALL CLOCK TIME=         11.1 SECONDS, CPU UTILIZATION IS    98.19%

          NSERCH=  1     ENERGY=    -117.1761978

                                 -----------------------
                                 GRADIENT (HARTREE/BOHR)
                                 -----------------------
        ATOM     ZNUC       DE/DX         DE/DY         DE/DZ
 --------------------------------------------------------------
    1  C            6.0    -0.0101719     0.0031199     0.0000000
    2  C            6.0     0.0100021    -0.0084460     0.0000000
    3  C            6.0    -0.0129440     0.0076167     0.0000000
    4  H            1.0    -0.0000803    -0.0000829     0.0000000
    5  H            1.0     0.0038664    -0.0007060     0.0000000
    6  H            1.0     0.0005311    -0.0006180     0.0000000
    7  H            1.0     0.0030082    -0.0001850     0.0021903
    8  H            1.0     0.0030082    -0.0001850    -0.0021903
    9  H            1.0     0.0027801    -0.0005139     0.0000000

          MAXIMUM GRADIENT = 0.0129440    RMS GRADIENT = 0.0045624

 NSERCH:   1  E=     -117.1761978122  GRAD. MAX=  0.0129440  R.M.S.=  0.0045624

          HESSIAN UPDATED USING THE BFGS FORMULA
             ACTUAL ENERGY CHANGE WAS  -0.0000372999
          PREDICTED ENERGY CHANGE WAS  -0.0008565236 RATIO=  0.044
          MIN SEARCH, CORRECT HESSIAN, TRYING PURE NR STEP
               NR STEP HAS LENGTH         =   0.080976
          TRIM/QA LAMBDA FOR NON-TS MODES =  -0.00430833
          TRIM/QA STEP HAS LENGTH         =   0.077229
          RADIUS OF STEP TAKEN=   0.07723  CURRENT TRUST RADIUS=   0.07723

 BEGINNING GEOMETRY SEARCH POINT NSERCH=   2 ...

 COORDINATES OF SYMMETRY UNIQUE ATOMS (ANGS)
   ATOM   CHARGE       X              Y              Z
 ------------------------------------------------------------
 C           6.0   0.7871748140   1.0005282023   0.0000000000
 C           6.0  -0.3513524862   0.3135331547   0.0000000000
 C           6.0  -0.4337136380  -1.1973421913   0.0000000000
 H           1.0   1.7546815784   0.5045985614   0.0000000000
 H           1.0   0.8096226785   2.0864839700   0.0000000000
 H           1.0  -1.2987112686   0.8497345874   0.0000000000
 H           1.0   0.0565825603  -1.6164091978   0.8861026677
 H           1.0  -1.4708667987  -1.5447178889   0.0000000000
 COORDINATES OF ALL ATOMS ARE (ANGS)
   ATOM   CHARGE       X              Y              Z
 ------------------------------------------------------------
 C           6.0   0.7871748140   1.0005282023   0.0000000000
 C           6.0  -0.3513524862   0.3135331547   0.0000000000
 C           6.0  -0.4337136380  -1.1973421913   0.0000000000
 H           1.0   1.7546815784   0.5045985614   0.0000000000
 H           1.0   0.8096226785   2.0864839700   0.0000000000
 H           1.0  -1.2987112686   0.8497345874   0.0000000000
 H           1.0   0.0565825603  -1.6164091978  -0.8861026677
 H           1.0   0.0565825603  -1.6164091978   0.8861026677
 H           1.0  -1.4708667987  -1.5447178889   0.0000000000

          INTERNUCLEAR DISTANCES (ANGS.)
          ------------------------------

                1 C          2 C          3 C          4 H          5 H     

   1 C       0.0000000    1.3297393 *  2.5142002 *  1.0872054 *  1.0861878 *
   2 C       1.3297393 *  0.0000000    1.5131185 *  2.1146833 *  2.1192494 *
   3 C       2.5142002 *  1.5131185 *  0.0000000    2.7723052 *  3.5113245  
   4 H       1.0872054 *  2.1146833 *  2.7723052 *  0.0000000    1.8426876 *
   5 H       1.0861878 *  2.1192494 *  3.5113245    1.8426876 *  0.0000000  
   6 H       2.0913296 *  1.0885773 *  2.2223286 *  3.0728369    2.4443038 *
   7 H       2.8578496 *  2.1624677 *  1.0959861 *  2.8578650 *  3.8811938  
   8 H       2.8578496 *  2.1624677 *  1.0959861 *  2.8578650 *  3.8811938  
   9 H       3.4025034    2.1694260 *  1.0937809 *  3.8214997    4.2879201  

                6 H          7 H          8 H          9 H     

   1 C       2.0913296 *  2.8578496 *  2.8578496 *  3.4025034  
   2 C       1.0885773 *  2.1624677 *  2.1624677 *  2.1694260 *
   3 C       2.2223286 *  1.0959861 *  1.0959861 *  1.0937809 *
   4 H       3.0728369    2.8578650 *  2.8578650 *  3.8214997  
   5 H       2.4443038 *  3.8811938    3.8811938    4.2879201  
   6 H       0.0000000    2.9502313 *  2.9502313 *  2.4006333 *
   7 H       2.9502313 *  0.0000000    1.7722053 *  1.7673198 *
   8 H       2.9502313 *  1.7722053 *  0.0000000    1.7673198 *
   9 H       2.4006333 *  1.7673198 *  1.7673198 *  0.0000000  

  * ... LESS THAN  3.000

 ...... END OF ONE-ELECTRON INTEGRALS ......
 STEP CPU TIME =     0.00 TOTAL CPU TIME =         10.9 (      0.2 MIN)
 TOTAL WALL CLOCK TIME=         11.1 SECONDS, CPU UTILIZATION IS    98.19%
  ...... END OF TWO-ELECTRON INTEGRALS .....
 STEP CPU TIME =     0.00 TOTAL CPU TIME =         10.9 (      0.2 MIN)
 TOTAL WALL CLOCK TIME=         11.1 SECONDS, CPU UTILIZATION IS    98.10%

          --------------------------
             R-B3LYP SCF CALCULATION
          --------------------------
         DENSITY MATRIX CONVERGENCE THRESHOLD=  2.00E-05
     COARSE -> FINE DFT GRID SWITCH THRESHOLD=  3.00E-04 (SWITCH IN $DFT)
                   HF -> DFT SWITCH THRESHOLD=  5.00E-03 (SWOFF IN $DFT)

 DIRECT SCF CALCULATION, SCHWRZ=T   FDIFF=T,  DIRTHR=  0.00E+00 NITDIR=10

 DFT CODE IS SWITCHING FROM THE FINE GRID NRAD= 96,  NLEB=  590
                      TO THE COARSE GRID NRAD0= 24, NLEB0=  110

                                                                                   NONZERO     BLOCKS
 ITER EX DEM     TOTAL ENERGY        E CHANGE  DENSITY CHANGE    DIIS ERROR      INTEGRALS    SKIPPED
          * * *   INITIATING DIIS PROCEDURE   * * *
   1  0  0     -117.1752313984  -117.1752313984   0.006211634   0.007676551         165552       1722
   2  1  0     -117.1754139284    -0.0001825300   0.001101382   0.000688940         162959       2595
   3  2  0     -117.1754148294    -0.0000009010   0.000481219   0.000576688         160775       3189
   4  3  0     -117.1754161316    -0.0000013022   0.000072567   0.000086084         158832       3469
 DFT CODE IS SWITCHING BACK TO THE FINE GRID
          * * *   INITIATING DIIS PROCEDURE   * * *
   5  4  0     -117.1767805670    -0.0013644355   0.002082104   0.000467161         165548       1723
   6  5  0     -117.1767820129    -0.0000014459   0.000155811   0.000093699         160415       3238
   7  6  0     -117.1767820164    -0.0000000036   0.000105674   0.000124039         155526       4124
   8  7  0     -117.1767820427    -0.0000000263   0.000030648   0.000050491         154225       4525
   9  8  0     -117.1767820454    -0.0000000027   0.000009063   0.000007669         151290       5140
  10  9  0     -117.1767820456    -0.0000000002   0.000000780   0.000001135         147161       5859

          -----------------
          DENSITY CONVERGED
          -----------------
     TIME TO FORM FOCK OPERATORS=       3.9 SECONDS (       0.4 SEC/ITER)
     FOCK TIME ON FIRST ITERATION=       0.0, LAST ITERATION=       0.6
     TIME TO SOLVE SCF EQUATIONS=       0.0 SECONDS (       0.0 SEC/ITER)

 FINAL R-B3LYP ENERGY IS     -117.1767820456 AFTER  10 ITERATIONS
 DFT EXCHANGE + CORRELATION ENERGY =       -14.8251220743
 TOTAL ELECTRON NUMBER             =        23.9999808947
 ...... END OF RHF CALCULATION ......
 STEP CPU TIME =     4.07 TOTAL CPU TIME =         14.9 (      0.2 MIN)
 TOTAL WALL CLOCK TIME=         15.2 SECONDS, CPU UTILIZATION IS    98.29%
 ..... END OF 1-ELECTRON GRADIENT ......
 STEP CPU TIME =     0.01 TOTAL CPU TIME =         14.9 (      0.2 MIN)
 TOTAL WALL CLOCK TIME=         15.2 SECONDS, CPU UTILIZATION IS    98.29%
 MEMORY FOR GRID POINT CONTRIBUTIONS TO THE DFT GRADIENT=    584845 WORDS.
 STEP CPU TIME =     1.20 TOTAL CPU TIME =         16.1 (      0.3 MIN)
 TOTAL WALL CLOCK TIME=         16.4 SECONDS, CPU UTILIZATION IS    98.41%
 ...... END OF 2-ELECTRON GRADIENT ......
 STEP CPU TIME =     0.02 TOTAL CPU TIME =         16.2 (      0.3 MIN)
 TOTAL WALL CLOCK TIME=         16.4 SECONDS, CPU UTILIZATION IS    98.42%

          NSERCH=  2     ENERGY=    -117.1767820

                                 -----------------------
                                 GRADIENT (HARTREE/BOHR)
                                 -----------------------
        ATOM     ZNUC       DE/DX         DE/DY         DE/DZ
 --------------------------------------------------------------
    1  C            6.0    -0.0027010    -0.0021855     0.0000000
    2  C            6.0     0.0023624    -0.0026809     0.0000000
    3  C            6.0     0.0006164     0.0038583     0.0000000
    4  H            1.0    -0.0002365     0.0004159     0.0000000
    5  H            1.0     0.0008527     0.0004225     0.0000000
    6  H            1.0    -0.0002383    -0.0002748     0.0000000
    7  H            1.0    -0.0006381     0.0005038     0.0003105
    8  H            1.0    -0.0006381     0.0005038    -0.0003105
    9  H            1.0     0.0006206    -0.0005630     0.0000000

          MAXIMUM GRADIENT = 0.0038583    RMS GRADIENT = 0.0012706

 NSERCH:   2  E=     -117.1767820456  GRAD. MAX=  0.0038583  R.M.S.=  0.0012706

          HESSIAN UPDATED USING THE BFGS FORMULA
             ACTUAL ENERGY CHANGE WAS  -0.0005842334
          PREDICTED ENERGY CHANGE WAS  -0.0005656623 RATIO=  1.033
          MIN SEARCH, CORRECT HESSIAN, TRYING PURE NR STEP
               NR STEP HAS LENGTH         =   0.038934
          RADIUS OF STEP TAKEN=   0.03893  CURRENT TRUST RADIUS=   0.15446

 BEGINNING GEOMETRY SEARCH POINT NSERCH=   3 ...

 COORDINATES OF SYMMETRY UNIQUE ATOMS (ANGS)
   ATOM   CHARGE       X              Y              Z
 ------------------------------------------------------------
 C           6.0   0.7911718583   1.0013879323   0.0000000000
 C           6.0  -0.3504260137   0.3144862326   0.0000000000
 C           6.0  -0.4342316941  -1.2015588086   0.0000000000
 H           1.0   1.7565884857   0.5021222705   0.0000000000
 H           1.0   0.7976493931   2.0872773432   0.0000000000
 H           1.0  -1.2958705327   0.8537535338   0.0000000000
 H           1.0   0.0606003698  -1.6212464436   0.8840066112
 H           1.0  -1.4760822363  -1.5349756165   0.0000000000
 COORDINATES OF ALL ATOMS ARE (ANGS)
   ATOM   CHARGE       X              Y              Z
 ------------------------------------------------------------
 C           6.0   0.7911718583   1.0013879323   0.0000000000
 C           6.0  -0.3504260137   0.3144862326   0.0000000000
 C           6.0  -0.4342316941  -1.2015588086   0.0000000000
 H           1.0   1.7565884857   0.5021222705   0.0000000000
 H           1.0   0.7976493931   2.0872773432   0.0000000000
 H           1.0  -1.2958705327   0.8537535338   0.0000000000
 H           1.0   0.0606003698  -1.6212464436  -0.8840066112
 H           1.0   0.0606003698  -1.6212464436   0.8840066112
 H           1.0  -1.4760822363  -1.5349756165   0.0000000000

          INTERNUCLEAR DISTANCES (ANGS.)
          ------------------------------

                1 C          2 C          3 C          4 H          5 H     

   1 C       0.0000000    1.3323211 *  2.5208309 *  1.0868742 *  1.0859087 *
   2 C       1.3323211 *  0.0000000    1.5183596 *  2.1153528 *  2.1120761 *
   3 C       2.5208309 *  1.5183596 *  0.0000000    2.7752878 *  3.5119758  
   4 H       1.0868742 *  2.1153528 *  2.7752878 *  0.0000000    1.8526416 *
   5 H       1.0859087 *  2.1120761 *  3.5119758    1.8526416 *  0.0000000  
   6 H       2.0922576 *  1.0884276 *  2.2286162 *  3.0726455    2.4298985 *
   7 H       2.8624139 *  2.1673651 *  1.0965693 *  2.8577155 *  3.8830217  
   8 H       2.8624139 *  2.1673651 *  1.0965693 *  2.8577155 *  3.8830217  
   9 H       3.4019966    2.1650892 *  1.0939010 *  3.8209852    4.2767478  

                6 H          7 H          8 H          9 H     

   1 C       2.0922576 *  2.8624139 *  2.8624139 *  3.4019966  
   2 C       1.0884276 *  2.1673651 *  2.1673651 *  2.1650892 *
   3 C       2.2286162 *  1.0965693 *  1.0965693 *  1.0939010 *
   4 H       3.0726455    2.8577155 *  2.8577155 *  3.8209852  
   5 H       2.4298985 *  3.8830217    3.8830217    4.2767478  
   6 H       0.0000000    2.9575507 *  2.9575507 *  2.3955173 *
   7 H       2.9575507 *  0.0000000    1.7680132 *  1.7749095 *
   8 H       2.9575507 *  1.7680132 *  0.0000000    1.7749095 *
   9 H       2.3955173 *  1.7749095 *  1.7749095 *  0.0000000  

  * ... LESS THAN  3.000

 ...... END OF ONE-ELECTRON INTEGRALS ......
 STEP CPU TIME =     0.00 TOTAL CPU TIME =         16.2 (      0.3 MIN)
 TOTAL WALL CLOCK TIME=         16.4 SECONDS, CPU UTILIZATION IS    98.36%
  ...... END OF TWO-ELECTRON INTEGRALS .....
[...]
               TOTAL  0.03182881 14.83653098  2.44844050  0.02341338  1.93330720

                            6           7           8           9          10
       FREQUENCY:         2.26        7.09      430.38      598.46      908.49  
        SYMMETRY:         A''         A''         A'          A''         A'  
    REDUCED MASS:      2.10375     1.77307     2.00692     1.30226     2.83048
    IR INTENSITY:      0.00089     0.00107     0.01086     0.40715     0.01248

  1   C            X -0.00019467  0.00005405  0.01513884 -0.00000181 -0.03506808
                   Y  0.00016439  0.00001709  0.11758908 -0.00000352 -0.09948349
                   Z  0.20663141 -0.05071960  0.00000278  0.03783775 -0.00000218
  2   C            X  0.00024667  0.00008587  0.11930915 -0.00000597  0.03259611
                   Y -0.00056582 -0.00003555 -0.06855442  0.00000009 -0.12034703
                   Z -0.03769269 -0.10783498 -0.00000490 -0.13727574 -0.00000148
  3   C            X  0.00121623  0.00015567 -0.08780669 -0.00000005  0.01960609
                   Y -0.00062027 -0.00003941 -0.06773666 -0.00000211  0.17755135
                   Z -0.05720363  0.15831271 -0.00000028  0.01710801  0.00000308
  4   H            X  0.00012257  0.00007692  0.14284581 -0.00000667  0.09975803
                   Y  0.00078630  0.00006194  0.37381143 -0.00001319  0.17899667
                   Z  0.41322223  0.19695324 -0.00000006 -0.33674898 -0.00000222
  5   H            X -0.00089083  0.00000387 -0.26694562  0.00000697 -0.38951854
                   Y  0.00017211  0.00001764  0.12378416 -0.00000391 -0.09731772
                   Z  0.21002463 -0.24894648  0.00001103  0.60449207  0.00002101
  6   H            X -0.00009669  0.00006113  0.10672787 -0.00000641  0.06718666
                   Y -0.00117018 -0.00007911 -0.08143502 -0.00000072 -0.06754255
                   Z -0.23932950 -0.35985813  0.00000057  0.31304427 -0.00000016
  7   H            X  0.19175628  0.14227827 -0.18659807 -0.03962589  0.00216012
                   Y  0.00033091 -0.16329219 -0.17919920 -0.23519258  0.14316468
                   Z  0.04790265  0.31456319 -0.00191998  0.10895857  0.00556310
  8   H            X -0.18878722 -0.14192828 -0.18657212  0.03963275  0.00215702
                   Y -0.00094495  0.16325837 -0.17918108  0.23519596  0.14314720
                   Z  0.04790282  0.31456314  0.00191448  0.10895834 -0.00556499
  9   H            X  0.00143070  0.00017111 -0.16487682  0.00000252  0.01421267
                   Y -0.00128280 -0.00008711  0.16493705 -0.00000996  0.20295834
                   Z -0.28071278  0.05348870  0.00002253  0.18165709 -0.00000997

 TRANS. SAYVETZ    X  0.01878115  0.00421524 -0.00006963 -0.00009067 -0.00003113
                   Y -0.01438549 -0.00081582  0.00003612 -0.00009107 -0.00000430
                   Z  1.54138827  0.26998010  0.00000007  0.00007298 -0.00000018
               TOTAL  1.54156981  0.27001424  0.00007844  0.00014778  0.00003142

   ROT. SAYVETZ    X  7.37359237-10.28604224  0.00000112 -0.00022704  0.00000154
                   Y -8.30626582  0.05417997  0.00000105  0.00173234 -0.00000041
                   Z  0.07573017  0.00545485 -0.02228466  0.00003715 -0.00493165
               TOTAL 11.10718918 10.28618638  0.02228466  0.00174755  0.00493165

                           11          12          13          14          15
       FREQUENCY:       962.71     1008.39     1036.45     1089.38     1206.03  
        SYMMETRY:         A''         A'          A''         A''         A'  
    REDUCED MASS:      1.32397     1.20518     1.05304     1.48945     1.68540
    IR INTENSITY:      1.04721     0.01743     0.50291     0.01325     0.15077

  1   C            X  0.00000046 -0.05853619 -0.00000122 -0.00000083  0.01483615
                   Y  0.00000217  0.03070816 -0.00000124 -0.00000131 -0.08520409
                   Z -0.14282122  0.00000073  0.00367639 -0.02867245 -0.00000010
  2   C            X  0.00000032  0.01653416 -0.00000066 -0.00000126 -0.06976251
                   Y  0.00000255 -0.02805345 -0.00000308 -0.00000439  0.10958154
                   Z  0.03028055 -0.00000056 -0.04562861  0.11893586  0.00000098
  3   C            X  0.00000025  0.08969658  0.00000088 -0.00000022  0.09664203
                   Y -0.00000290  0.03771080  0.00000290  0.00000340 -0.05365962
                   Z  0.02020494  0.00000139 -0.04255511 -0.12020463 -0.00000145
  4   H            X -0.00000181 -0.22617377 -0.00000296 -0.00000292  0.15922800
                   Y -0.00000259 -0.30995474 -0.00000466 -0.00000544  0.22848889
                   Z  0.58892259 -0.00000968  0.49640015  0.03444150  0.00000023
  5   H            X  0.00000761  0.28575294 -0.00000083 -0.00000139 -0.35491241
                   Y  0.00000220  0.01906525 -0.00000158 -0.00000177 -0.07346673
                   Z  0.60464066  0.00000277 -0.36923787  0.04410549 -0.00000091
  6   H            X -0.00000044 -0.13281012 -0.00000308 -0.00000426  0.05087102
                   Y  0.00000129 -0.29496523 -0.00000742 -0.00000972  0.32684574
                   Z  0.00131505 -0.00000599  0.70567717 -0.26589959  0.00000141
  7   H            X -0.00225054 -0.20643728  0.00365242  0.03888465 -0.16196889
                   Y  0.09470405 -0.21731903 -0.16450285 -0.47817646 -0.21358873
                   Z -0.02639340 -0.03940100  0.04610571  0.14210552 -0.06135632
  8   H            X  0.00224807 -0.20643741 -0.00365607 -0.03888437 -0.16197030
                   Y -0.09471175 -0.21732875  0.16450336  0.47818272 -0.21357386
                   Z -0.02639273  0.03939866  0.04610618  0.14210499  0.06136121
  9   H            X -0.00000077 -0.08181814 -0.00000048  0.00000033 -0.02797424
                   Y -0.00000003  0.53988500  0.00000694  0.00000197  0.29394930
                   Z -0.04264680 -0.00000356  0.08119053  0.25964435  0.00000116

 TRANS. SAYVETZ    X  0.00001462 -0.00003325 -0.00002317 -0.00003576 -0.00002567
                   Y  0.00001486  0.00000770 -0.00002321 -0.00003632 -0.00000336
                   Z  0.00001986 -0.00000007  0.00002781 -0.00000270  0.00000009
               TOTAL  0.00002879  0.00003413  0.00004300  0.00005104  0.00002589

   ROT. SAYVETZ    X  0.00117510  0.00000065 -0.00069213  0.00006437 -0.00000046
                   Y -0.00163000 -0.00000035  0.00144399 -0.00082166 -0.00000027
                   Z -0.00000555 -0.00097588  0.00000921  0.00001484 -0.00078975
               TOTAL  0.00200943  0.00097588  0.00160132  0.00082431  0.00078975

                           16          17          18          19          20
       FREQUENCY:      1377.13     1459.16     1501.30     1556.17     1564.56  
        SYMMETRY:         A'          A'          A'          A'          A'' 
    REDUCED MASS:      1.24536     1.17378     1.20882     1.05134     1.04342
    IR INTENSITY:      0.00552     0.12195     0.03055     0.17835     0.16002

  1   C            X -0.09909345 -0.00284492 -0.02342446 -0.01931946  0.00000049
                   Y  0.02182098 -0.00552352  0.00550614 -0.01907907 -0.00000009
                   Z -0.00000003 -0.00000000 -0.00000001 -0.00000008  0.00191633
  2   C            X  0.07020952  0.00189708 -0.07508894 -0.00652040 -0.00000281
                   Y -0.04209032 -0.00133778 -0.08875955  0.01607538 -0.00000175
                   Z  0.00000039  0.00000002  0.00000009  0.00000074 -0.01712543
  3   C            X  0.00964502  0.00312688  0.02459594 -0.04960281 -0.00000138
                   Y -0.01620070 -0.11317435  0.02063937 -0.01633494 -0.00000036
                   Z -0.00000044 -0.00000002  0.00000005  0.00000180 -0.05297968
  4   H            X -0.26049034  0.02540000  0.24711364  0.04026997  0.00000075
                   Y -0.28610099  0.04134941  0.49615618  0.09761013  0.00000016
                   Z -0.00000042 -0.00000004 -0.00000009  0.00000009 -0.00745634
  5   H            X -0.02076529  0.03156815  0.64478339  0.07499786  0.00000021
                   Y  0.00774654 -0.00405241  0.01530456 -0.01956776 -0.00000015
                   Z -0.00000030  0.00000001 -0.00000004 -0.00000038  0.01008243
  6   H            X  0.46195284 -0.02662061  0.10993099 -0.00690674  0.00000163
                   Y  0.64729036 -0.04880723  0.25099755  0.01634877  0.00000678
                   Z  0.00000148  0.00000014  0.00000029  0.00000041  0.00271968
  7   H            X  0.02531219  0.05411925 -0.07216440  0.47593214  0.38034441
                   Y  0.01514045  0.49442685 -0.01558560 -0.14473434  0.28970260
                   Z -0.00595172 -0.23083305 -0.03323639  0.33752769  0.05241866
  8   H            X  0.02531316  0.05411923 -0.07216265  0.47596028 -0.38030784
                   Y  0.01514913  0.49442752 -0.01558301 -0.14471026 -0.28971396
                   Z  0.00595394  0.23083330  0.03323650 -0.33753090  0.05239292
  9   H            X -0.00226520 -0.16453833  0.02263443 -0.16193614 -0.00000654
                   Y  0.03500423  0.45190041  0.01425354  0.42534118  0.00001916
                   Z -0.00000207 -0.00000006 -0.00000193 -0.00002658  0.70175798

 TRANS. SAYVETZ    X -0.00001719 -0.00000687  0.00001297  0.00003463 -0.00001165
                   Y -0.00001304  0.00000063  0.00000870  0.00002619 -0.00001172
                   Z  0.00000001  0.00000021  0.00000001 -0.00000038  0.00000318
               TOTAL  0.00002157  0.00000691  0.00001562  0.00004342  0.00001682

   ROT. SAYVETZ    X -0.00000051 -0.00000074  0.00000013  0.00000080 -0.00083965
                   Y  0.00000039  0.00000017  0.00000001 -0.00000047  0.00168861
                   Z -0.00072082 -0.00297351 -0.00279967 -0.00156788  0.00000525
               TOTAL  0.00072082  0.00297351  0.00279967  0.00156788  0.00188585

                           21          22          23          24          25
       FREQUENCY:      1716.26     3045.90     3093.74     3118.33     3143.57  
        SYMMETRY:         A'          A'          A''         A'          A'  
    REDUCED MASS:      3.87171     1.03530     1.09870     1.09603     1.05999
    IR INTENSITY:      0.15126     0.38267     0.43357     0.30445     0.32115

  1   C            X  0.14853176  0.00098610  0.00000011  0.00249008 -0.05776837
                   Y  0.09565333  0.00025770  0.00000004  0.00306446 -0.02573453
                   Z  0.00000001  0.00000000  0.00039448  0.00000000 -0.00000000
  2   C            X -0.14655952 -0.00056844 -0.00000000  0.01812957 -0.01193191
                   Y -0.11970014  0.00003762 -0.00000001 -0.00895560  0.01373333
                   Z -0.00000011  0.00000000 -0.00066595 -0.00000001  0.00000001
  3   C            X  0.01287154 -0.01412126  0.00000023 -0.08290389 -0.01210935
                   Y  0.01039931  0.04704957 -0.00000002 -0.00484472  0.00022540
                   Z  0.00000155 -0.00000005 -0.08674101 -0.00000016 -0.00000064
  4   H            X -0.01333338 -0.01354040 -0.00000374 -0.03292716  0.63191720
                   Y -0.26732539  0.00904211  0.00000206  0.01934394 -0.33149398
                   Z  0.00000141  0.00000000 -0.00281516  0.00000000 -0.00000018
  5   H            X -0.21188061  0.00198254  0.00000006  0.00077109 -0.00761344
                   Y  0.11762367 -0.01360058 -0.00000482 -0.06206119  0.59699254
                   Z -0.00000031 -0.00000000  0.00106498 -0.00000001  0.00000006
  6   H            X  0.00051877  0.00484817 -0.00000005 -0.21913613  0.20649109
                   Y  0.18770770 -0.00225288  0.00000004  0.12088399 -0.11630873
                   Z -0.00000292 -0.00000001 -0.00450872 -0.00000002  0.00000024
  7   H            X  0.03760456  0.28205910 -0.31502639  0.09775223  0.01879355
                   Y -0.00969296 -0.22328073  0.25572983 -0.10041456 -0.02049052
                   Z  0.02162743 -0.51796555  0.53505312 -0.22275380 -0.04091555
  8   H            X  0.03761962  0.28205953  0.31502545  0.09775347  0.01879696
                   Y -0.00969361 -0.22328106 -0.25572895 -0.10041560 -0.02049338
                   Z -0.02163268  0.51796623  0.53505113  0.22275584  0.04092287
  9   H            X -0.02732598 -0.39424040 -0.00000178  0.79740576  0.10571765
                   Y  0.14383116 -0.11035605 -0.00000053  0.25049689  0.03200367
                   Z -0.00001031 -0.00000004 -0.02780239 -0.00000005  0.00000002

 TRANS. SAYVETZ    X -0.00005514  0.00000207 -0.00000243  0.00001150  0.00000978
                   Y -0.00004828 -0.00000172 -0.00000232  0.00000339 -0.00000283
                   Z -0.00000007  0.00000002  0.00000030 -0.00000001 -0.00000000
               TOTAL  0.00007329  0.00000269  0.00000337  0.00001198  0.00001018

   ROT. SAYVETZ    X  0.00000005 -0.00000001 -0.00005628 -0.00000004 -0.00000004
                   Y -0.00000017 -0.00000003  0.00012169  0.00000003 -0.00000001
                   Z -0.00194412  0.00018339  0.00000089  0.00000861  0.00006186
               TOTAL  0.00194412  0.00018339  0.00013408  0.00000861  0.00006186

                           26          27
       FREQUENCY:      3155.27     3224.12  
        SYMMETRY:         A'          A'  
    REDUCED MASS:      1.09208     1.11316
    IR INTENSITY:      0.25803     0.49572

  1   C            X  0.02795982  0.03809776
                   Y -0.00606696 -0.08277020
                   Z  0.00000000 -0.00000000
  2   C            X -0.06890418  0.01543948
                   Y  0.03238657 -0.00797190
                   Z -0.00000000  0.00000001
  3   C            X -0.01992232  0.00170033
                   Y -0.00256674  0.00102242
                   Z  0.00000009 -0.00000014
  4   H            X -0.27814300 -0.49816956
                   Y  0.14269613  0.23930942
                   Z  0.00000003 -0.00000008
  5   H            X  0.00385224  0.01611199
                   Y -0.02133805  0.74307214
                   Z -0.00000001  0.00000003
  6   H            X  0.76135295 -0.15560176
                   Y -0.42598319  0.08476328
                   Z -0.00000004  0.00000013
  7   H            X  0.02084878 -0.00046656
                   Y -0.02222912  0.00403744
                   Z -0.04844037  0.00434672
  8   H            X  0.02084841 -0.00046614
                   Y -0.02222882  0.00403707
                   Z  0.04843934 -0.00434527
  9   H            X  0.19597970 -0.01912369
                   Y  0.06626241 -0.00694990
                   Z -0.00000001  0.00000006

 TRANS. SAYVETZ    X  0.00001002 -0.00001148
                   Y  0.00000059 -0.00000747
                   Z -0.00000001  0.00000000
               TOTAL  0.00001003  0.00001370

   ROT. SAYVETZ    X  0.00000005 -0.00000002
                   Y  0.00000013  0.00000002
                   Z  0.00008608  0.00033436
               TOTAL  0.00008608  0.00033436

 REFERENCE ON SAYVETZ CONDITIONS - A. SAYVETZ, J.CHEM.PHYS., 7, 383-389(1939).

 NOTE - THE MODES J,K ARE ORTHONORMALIZED ACCORDING TO
 SUM ON I   M(I) * (X(I,J)*X(I,K) + Y(I,J)*Y(I,K) + Z(I,J)*Z(I,K)) = DELTA(J,K)

  MODE FREQ(CM**-1)  SYMMETRY  RED. MASS  IR INTENS.
     1     208.536    A''      1.097644    0.015357
     2       2.128    A'       2.660686    0.001698
     3       0.633    A''      4.301005    0.000034
     4       0.022    A'       4.671362    0.000000
     5       0.280    A'       4.490939    0.000032
     6       2.264    A''      2.103753    0.000889
     7       7.086    A''      1.773075    0.001073
     8     430.378    A'       2.006920    0.010857
     9     598.458    A''      1.302265    0.407155
    10     908.485    A'       2.830479    0.012482
    11     962.708    A''      1.323966    1.047213
    12    1008.391    A'       1.205179    0.017427
    13    1036.448    A''      1.053043    0.502907
    14    1089.376    A''      1.489448    0.013252
    15    1206.031    A'       1.685398    0.150767
    16    1377.128    A'       1.245363    0.005523
    17    1459.159    A'       1.173778    0.121952
    18    1501.298    A'       1.208820    0.030546
    19    1556.167    A'       1.051341    0.178347
    20    1564.558    A''      1.043424    0.160022
    21    1716.264    A'       3.871710    0.151256
    22    3045.898    A'       1.035302    0.382665
    23    3093.739    A''      1.098700    0.433574
    24    3118.335    A'       1.096026    0.304448
    25    3143.566    A'       1.059991    0.321145
    26    3155.268    A'       1.092080    0.258032
    27    3224.122    A'       1.113155    0.495720

     -------------------------------
     THERMOCHEMISTRY AT T=  298.15 K
     -------------------------------

 USING IDEAL GAS, RIGID ROTOR, HARMONIC NORMAL MODE APPROXIMATIONS.
 P=  1.01325E+05 PASCAL.
 ALL FREQUENCIES ARE SCALED BY   1.00000
 THE MOMENTS OF INERTIA ARE (IN AMU*BOHR**2)
             39.18256           195.98570           223.86433
 THE ROTATIONAL SYMMETRY NUMBER IS  1.0
 THE ROTATIONAL CONSTANTS ARE (IN GHZ)
     46.01762     9.20010     8.05438
   1 IMAGINARY FREQUENCY VIBRATION(S) IS(ARE) EXCLUDED
     FROM THE FOLLOWING THERMOCHEMICAL ANALYSIS.
      8 -     27 VIBRATIONAL MODES ARE USED IN THERMOCHEMISTRY.
 THE HARMONIC ZERO POINT ENERGY IS (SCALED BY   1.000)
        0.080182 HARTREE/MOLECULE    17597.888779 CM**-1/MOLECULE 
       50.314939 KCAL/MOL              210.517706 KJ/MOL

               Q               LN Q
 ELEC.     1.00000E+00       0.000000
 TRANS.    1.07166E+07      16.187301
 ROT.      1.48420E+04       9.605216
 VIB.      1.27162E+00       0.240295
 TOT.      2.02259E+11      26.032813

              E         H         G         CV        CP        S
           KJ/MOL    KJ/MOL    KJ/MOL   J/MOL-K   J/MOL-K   J/MOL-K
 ELEC.      0.000     0.000     0.000     0.000     0.000     0.000
 TRANS.     3.718     6.197   -40.127    12.472    20.786   155.374
 ROT.       3.718     3.718   -23.811    12.472    12.472    92.333
 VIB.     212.290   212.290   209.922    20.821    20.821     7.943
 TOTAL    219.727   222.206   145.984    45.764    54.079   255.650
 VIB. THERMAL CORRECTION E(T)-E(0) = H(T)-H(0) =      1772.462 J/MOL

              E         H         G         CV        CP        S
         KCAL/MOL  KCAL/MOL  KCAL/MOL CAL/MOL-K CAL/MOL-K CAL/MOL-K
 ELEC.      0.000     0.000     0.000     0.000     0.000     0.000
 TRANS.     0.889     1.481    -9.591     2.981     4.968    37.135
 ROT.       0.889     0.889    -5.691     2.981     2.981    22.068
 VIB.      50.739    50.739    50.173     4.976     4.976     1.898
 TOTAL     52.516    53.108    34.891    10.938    12.925    61.102
 VIB. THERMAL CORRECTION E(T)-E(0) = H(T)-H(0) =       423.629 CAL/MOL
 ......END OF NORMAL COORDINATE ANALYSIS......
 STEP CPU TIME =     0.00 TOTAL CPU TIME =        319.2 (      5.3 MIN)
 TOTAL WALL CLOCK TIME=        323.7 SECONDS, CPU UTILIZATION IS    98.63%
                656798  WORDS OF DYNAMIC MEMORY USED
 EXECUTION OF GAMESS TERMINATED NORMALLY Sat Oct 29 20:32:56 2022
 DDI: 263640 bytes (0.3 MB / 0 MWords) used by master data server.

 ----------------------------------------
 CPU timing information for all processes
 ========================================
 0: 316.428 + 2.795 = 319.223
 ----------------------------------------
 ddikick.x: exited gracefully.
----- accounting info -----
Files used on the master node chemcompute-node-0.novalocal were:
-rw-r--r--. 1 chemcomp chemcomp      884 Oct 29 20:27 /scratch/141110/483148.F05
-rw-rw-r--. 1 chemcomp chemcomp 70451200 Oct 29 20:32 /scratch/141110/483148.F10
-rw-rw-r--. 1 chemcomp chemcomp  4612720 Oct 29 20:32 /scratch/141110/483148.F22
Sat Oct 29 20:32:59 UTC 2022
0.104u 0.037s 5:27.00 0.0%	0+0k 8+208io 0pf+0w
Finishing Up...
Looking for IR data...
Looking for Raman data...
vibramans not found
Looking for thermodynamics data...
Looking for UV-Vis data...
chemcompute.org
{'UTCtimestamp': '2022-10-29T20:33:01.531105', 'cluster': 'jetstream2', 'clusterJobNumber': '141110', 'status': 'COMPLETE', 'nodeList': 'chemcompute-node-0'}
141110
